 Default CPUs for threads: 0,1
 Default is to use a total of   2 processors:
                                2 via shared-memory
                                1 via Linda
 Entering Link 1 = C:\G16W\l1.exe PID=      7044.
  
 Copyright (c) 1988-2017, Gaussian, Inc.  All Rights Reserved.
  
 This is part of the Gaussian(R) 16 program.  It is based on
 the Gaussian(R) 09 system (copyright 2009, Gaussian, Inc.),
 the Gaussian(R) 03 system (copyright 2003, Gaussian, Inc.),
 the Gaussian(R) 98 system (copyright 1998, Gaussian, Inc.),
 the Gaussian(R) 94 system (copyright 1995, Gaussian, Inc.),
 the Gaussian 92(TM) system (copyright 1992, Gaussian, Inc.),
 the Gaussian 90(TM) system (copyright 1990, Gaussian, Inc.),
 the Gaussian 88(TM) system (copyright 1988, Gaussian, Inc.),
 the Gaussian 86(TM) system (copyright 1986, Carnegie Mellon
 University), and the Gaussian 82(TM) system (copyright 1983,
 Carnegie Mellon University). Gaussian is a federally registered
 trademark of Gaussian, Inc.
  
 This software contains proprietary and confidential information,
 including trade secrets, belonging to Gaussian, Inc.
  
 This software is provided under written license and may be
 used, copied, transmitted, or stored only in accord with that
 written license.
  
 The following legend is applicable only to US Government
 contracts under FAR:
  
                    RESTRICTED RIGHTS LEGEND
  
 Use, reproduction and disclosure by the US Government is
 subject to restrictions as set forth in subparagraphs (a)
 and (c) of the Commercial Computer Software - Restricted
 Rights clause in FAR 52.227-19.
  
 Gaussian, Inc.
 340 Quinnipiac St., Bldg. 40, Wallingford CT 06492
  
  
 ---------------------------------------------------------------
 Warning -- This program may not be used in any manner that
 competes with the business of Gaussian, Inc. or will provide
 assistance to any competitor of Gaussian, Inc.  The licensee
 of this program is prohibited from giving any competitor of
 Gaussian, Inc. access to this program.  By using this program,
 the user acknowledges that Gaussian, Inc. is engaged in the
 business of creating and licensing software in the field of
 computational chemistry and represents and warrants to the
 licensee that it is not a competitor of Gaussian, Inc. and that
 it will not use this program in any manner prohibited above.
 ---------------------------------------------------------------
  

 Cite this work as:
 Gaussian 16, Revision B.01,
 M. J. Frisch, G. W. Trucks, H. B. Schlegel, G. E. Scuseria, 
 M. A. Robb, J. R. Cheeseman, G. Scalmani, V. Barone, 
 G. A. Petersson, H. Nakatsuji, X. Li, M. Caricato, A. V. Marenich, 
 J. Bloino, B. G. Janesko, R. Gomperts, B. Mennucci, H. P. Hratchian, 
 J. V. Ortiz, A. F. Izmaylov, J. L. Sonnenberg, D. Williams-Young, 
 F. Ding, F. Lipparini, F. Egidi, J. Goings, B. Peng, A. Petrone, 
 T. Henderson, D. Ranasinghe, V. G. Zakrzewski, J. Gao, N. Rega, 
 G. Zheng, W. Liang, M. Hada, M. Ehara, K. Toyota, R. Fukuda, 
 J. Hasegawa, M. Ishida, T. Nakajima, Y. Honda, O. Kitao, H. Nakai, 
 T. Vreven, K. Throssell, J. A. Montgomery, Jr., J. E. Peralta, 
 F. Ogliaro, M. J. Bearpark, J. J. Heyd, E. N. Brothers, K. N. Kudin, 
 V. N. Staroverov, T. A. Keith, R. Kobayashi, J. Normand, 
 K. Raghavachari, A. P. Rendell, J. C. Burant, S. S. Iyengar, 
 J. Tomasi, M. Cossi, J. M. Millam, M. Klene, C. Adamo, R. Cammi, 
 J. W. Ochterski, R. L. Martin, K. Morokuma, O. Farkas, 
 J. B. Foresman, and D. J. Fox, Gaussian, Inc., Wallingford CT, 2016.
 
 ******************************************
 Gaussian 16:  EM64W-G16RevB.01 16-Dec-2017
                21-Mar-2020 
 ******************************************
 %oldchk=C:\Users\zz\Desktop\ethene_initial_guess.chk
 %chk=C:\Users\zz\Desktop\ethene_relax_scan.chk
 SetSPE:  set environment variable "MP_BIND" = "yes"
 SetSPE:  set environment variable "MP_BLIST" = "0,1"
 Copying data from "C:\Users\zz\Desktop\ethene_initial_guess.chk" to current chk file "C:\Users\zz\Desktop\ethene_relax_scan.chk"
 IOpt=  2 FromEx=T IUOpen= 4 IOptOp= 5 NList=   0 IFRang= 0 IUIn= 4 IUOut= 2.
 Default route: G09Defaults
 ----------------------------------------------------------------------
 # Opt=AddGIC UM062X/def2SVP EmpiricalDispersion=GD3 Integral=UltraFine
 Grid NoSymmetry Guess=Read SCF=(XQC,VShift=300)
 ----------------------------------------------------------------------
 1/14=-1,18=20,19=15,26=4,38=1,145=903,158=3,167=1/1,3;
 2/9=110,12=2,15=1,17=6,18=5,40=1/2;
 3/5=43,7=101,11=2,25=1,27=10,30=1,71=1,74=-55,75=-5,116=2,124=31,158=3/1,2,3;
 4/5=1,60=-1/1;
 5/5=2,8=3,10=300,13=1,38=6,87=10/2,8;
 6/7=2,8=2,9=2,10=2,28=1,87=10/1;
 7/30=1,87=10/1,2,3,16;
 1/14=-1,18=20,19=15,26=4,145=903,158=3,167=1/3(2);
 2/9=110,15=1/2;
 99//99;
 2/9=110,15=1/2;
 3/5=43,7=101,11=2,25=1,27=10,30=1,71=1,74=-55,75=-5,116=2,124=31,158=3/1,2,3;
 4/5=5,16=3,60=-1,69=1/1;
 5/5=2,8=3,10=300,13=1,38=5,87=10/2,8;
 7/30=1,87=10/1,2,3,16;
 1/14=-1,18=20,19=15,26=4,145=903,158=3,167=1/3(-5);
 2/9=110,15=1/2;
 6/7=2,8=2,9=2,10=2,19=2,28=1,87=10/1;
 99/9=1/99;
 Using 2006 physical constants.
 --------------------------------
 For Symmetry broken wavefunction
 --------------------------------
 Symbolic Z-matrix:
 Charge =  0 Multiplicity = 1
 C                     0.        0.       -0.6776 
 H                     0.        0.92457  -1.21638 
 H                     0.       -0.92457  -1.21638 
 C                     0.        0.        0.6776 
 H                    -0.92457   0.        1.21638 
 H                     0.92457   0.        1.21638 
 
 Initializing the GIC definitions file.
 Number of initial coordinates =    15
 Number of input entries/lines =     2
 Number of additional coordinates =     1
 Number of removed coordinates =     0
 Number of frozen coordinates =     1
 Number of final active and frozen coordinates =    16

 GradGradGradGradGradGradGradGradGradGradGradGradGradGradGradGradGradGrad
 Berny optimization.
 Initialization pass.
                           ----------------------------
                           !    Initial Parameters    !
                           ! (Angstroms and Degrees)  !
 --------------------------                            --------------------------
 ! Name  Definition              Value          Derivative Info.                !
 --------------------------------------------------------------------------------
 ! R1    R(1,2)                  1.0701         estimate D2E/DX2                !
 ! R2    R(1,3)                  1.0701         estimate D2E/DX2                !
 ! R3    R(1,4)                  1.3552         estimate D2E/DX2                !
 ! R4    R(4,5)                  1.0701         estimate D2E/DX2                !
 ! R5    R(4,6)                  1.0701         estimate D2E/DX2                !
 ! A1    A(2,1,3)              119.5376         estimate D2E/DX2                !
 ! A2    A(2,1,4)              120.2312         estimate D2E/DX2                !
 ! A3    A(3,1,4)              120.2312         estimate D2E/DX2                !
 ! A4    A(1,4,5)              120.2312         estimate D2E/DX2                !
 ! A5    A(1,4,6)              120.2312         estimate D2E/DX2                !
 ! A6    A(5,4,6)              119.5376         estimate D2E/DX2                !
 ! Scan  D(2,1,4,5)             90.0            Scan                            !
 ! D2    D(2,1,4,6)            -90.0            estimate D2E/DX2                !
 ! D3    D(3,1,4,5)            -90.0            estimate D2E/DX2                !
 ! D4    D(3,1,4,6)             90.0            estimate D2E/DX2                !
 ! Rcons GIC-1                   0.0            Frozen                          !
 --------------------------------------------------------------------------------
 NOTE: GIC-type coordinates are in arbitrary units.
 Trust Radius=3.00D-01 FncErr=1.00D-07 GrdErr=1.00D-06 EigMax=2.50D+02 EigMin=1.00D-04
 Number of optimizations in scan=  46
 Number of steps in this run=     26 maximum allowed number of steps=    100.
 GradGradGradGradGradGradGradGradGradGradGradGradGradGradGradGradGradGrad

                          Input orientation:                          
 ---------------------------------------------------------------------
 Center     Atomic      Atomic             Coordinates (Angstroms)
 Number     Number       Type             X           Y           Z
 ---------------------------------------------------------------------
      1          6           0        0.000000    0.000000   -0.677600
      2          1           0        0.000000    0.924565   -1.216384
      3          1           0        0.000000   -0.924565   -1.216384
      4          6           0        0.000000    0.000000    0.677600
      5          1           0       -0.924565    0.000000    1.216384
      6          1           0        0.924565    0.000000    1.216384
 ---------------------------------------------------------------------
                    Distance matrix (angstroms):
                    1          2          3          4          5
     1  C    0.000000
     2  H    1.070098   0.000000
     3  H    1.070098   1.849130   0.000000
     4  C    1.355200   2.107604   2.107604   0.000000
     5  H    2.107604   2.761883   2.761883   1.070098   0.000000
     6  H    2.107604   2.761883   2.761883   1.070098   1.849130
                    6
     6  H    0.000000
 Symmetry turned off by external request.
 Stoichiometry    C2H4
 Framework group  D2D[C2(C.C),2SGD(H2)]
 Deg. of freedom     3
 Full point group                 D2D     NOp   8
 Rotational constants (GHZ):         146.6550470          27.0153714          27.0153714
 Standard basis: def2SVP (5D, 7F)
    48 basis functions,    78 primitive gaussians,    50 cartesian basis functions
     8 alpha electrons        8 beta electrons
       nuclear repulsion energy        33.2902322189 Hartrees.
 NAtoms=    6 NActive=    6 NUniq=    6 SFac= 1.00D+00 NAtFMM=   60 NAOKFM=F Big=F
 Integral buffers will be    131072 words long.
 Raffenetti 2 integral format.
 Two-electron integral symmetry is turned off.
 Nuclear repulsion after empirical dispersion term =       33.2902287134 Hartrees.
 One-electron integrals computed using PRISM.
   1 Symmetry operations used in ECPInt.
 ECPInt:  NShTT=     300 NPrTT=    1028 LenC2=     301 LenP2D=     979.
 LDataN:  DoStor=T MaxTD1= 4 Len=   56
 NBasis=    48 RedAO= T EigKep=  4.49D-03  NBF=    48
 NBsUse=    48 1.00D-06 EigRej= -1.00D+00 NBFU=    48
 Initial guess from the checkpoint file:  "C:\Users\zz\Desktop\ethene_relax_scan.chk"
 B after Tr=     0.000000    0.000000    0.000000
         Rot=    1.000000    0.000000    0.000000    0.000000 Ang=   0.00 deg.
 Initial guess <Sx>= 0.0000 <Sy>= 0.0000 <Sz>= 0.0000 <S**2>= 1.0127 S= 0.6237
 Keep R1 and R2 ints in memory in canonical form, NReq=3131642.
 Requested convergence on RMS density matrix=1.00D-08 within  32 cycles.
 Requested convergence on MAX density matrix=1.00D-06.
 Requested convergence on             energy=1.00D-06.
 Virtual orbitals will be shifted by   0.300 hartree.
 No special actions if energy rises.
 SCF Done:  E(UM062X) =  -78.3638777951     A.U. after    1 cycles
            NFock=  1  Conv=0.16D-09     -V/T= 2.0073
 <Sx>= 0.0000 <Sy>= 0.0000 <Sz>= 0.0000 <S**2>= 1.0127 S= 0.6237
 <L.S>= 0.000000000000E+00
 Annihilation of the first spin contaminant:
 S**2 before annihilation     1.0127,   after     0.1017
 QCSCF skips out because SCF is already converged.

 **********************************************************************

            Population analysis using the SCF Density.

 **********************************************************************

 Alpha  occ. eigenvalues --  -10.54776 -10.53948  -0.84444  -0.64884  -0.50709
 Alpha  occ. eigenvalues --   -0.49795  -0.47929  -0.25807
 Alpha virt. eigenvalues --    0.00180   0.13725   0.15440   0.18012   0.19363
 Alpha virt. eigenvalues --    0.35419   0.44071   0.52265   0.53424   0.55189
 Alpha virt. eigenvalues --    0.59870   0.66232   0.66940   0.71104   0.74096
 Alpha virt. eigenvalues --    0.74333   0.77023   0.85279   1.22975   1.29912
 Alpha virt. eigenvalues --    1.58643   1.59444   1.66168   1.66676   1.70595
 Alpha virt. eigenvalues --    1.73432   1.90064   1.91413   2.00131   2.12689
 Alpha virt. eigenvalues --    2.15373   2.38777   2.38855   2.40189   2.42935
 Alpha virt. eigenvalues --    2.75149   2.93833   3.03141   3.04469   3.07884
  Beta  occ. eigenvalues --  -10.54776 -10.53948  -0.84444  -0.64884  -0.50709
  Beta  occ. eigenvalues --   -0.49795  -0.47929  -0.25807
  Beta virt. eigenvalues --    0.00180   0.13725   0.15440   0.18012   0.19363
  Beta virt. eigenvalues --    0.35419   0.44071   0.52265   0.53424   0.55189
  Beta virt. eigenvalues --    0.59870   0.66232   0.66940   0.71104   0.74096
  Beta virt. eigenvalues --    0.74333   0.77023   0.85279   1.22975   1.29912
  Beta virt. eigenvalues --    1.58643   1.59444   1.66168   1.66676   1.70595
  Beta virt. eigenvalues --    1.73432   1.90064   1.91413   2.00131   2.12689
  Beta virt. eigenvalues --    2.15373   2.38777   2.38855   2.40189   2.42935
  Beta virt. eigenvalues --    2.75149   2.93833   3.03141   3.04469   3.07884
          Condensed to atoms (all electrons):
               1          2          3          4          5          6
     1  C    4.985474   0.406825   0.406825   0.423233  -0.044871  -0.044871
     2  H    0.406825   0.608378  -0.039421  -0.044871   0.001391   0.001391
     3  H    0.406825  -0.039421   0.608378  -0.044871   0.001391   0.001391
     4  C    0.423233  -0.044871  -0.044871   4.985474   0.406825   0.406825
     5  H   -0.044871   0.001391   0.001391   0.406825   0.608378  -0.039421
     6  H   -0.044871   0.001391   0.001391   0.406825  -0.039421   0.608378
          Atomic-Atomic Spin Densities.
               1          2          3          4          5          6
     1  C    1.264404  -0.011648  -0.011648   0.000000  -0.031720  -0.031720
     2  H   -0.011648  -0.149052   0.023099   0.031720   0.000000   0.000000
     3  H   -0.011648   0.023099  -0.149052   0.031720   0.000000   0.000000
     4  C    0.000000   0.031720   0.031720  -1.264404   0.011648   0.011648
     5  H   -0.031720   0.000000   0.000000   0.011648   0.149052  -0.023099
     6  H   -0.031720   0.000000   0.000000   0.011648  -0.023099   0.149052
 Mulliken charges and spin densities:
               1          2
     1  C   -0.132615   1.177667
     2  H    0.066308  -0.105880
     3  H    0.066308  -0.105880
     4  C   -0.132615  -1.177667
     5  H    0.066308   0.105880
     6  H    0.066308   0.105880
 Sum of Mulliken charges =   0.00000   0.00000
 Mulliken charges and spin densities with hydrogens summed into heavy atoms:
               1          2
     1  C    0.000000   0.965906
     4  C    0.000000  -0.965906
 Electronic spatial extent (au):  <R**2>=             83.1570
 Charge=              0.0000 electrons
 Dipole moment (field-independent basis, Debye):
    X=              0.0000    Y=              0.0000    Z=              0.0000  Tot=              0.0000
 Quadrupole moment (field-independent basis, Debye-Ang):
   XX=            -13.6047   YY=            -13.6047   ZZ=            -13.3248
   XY=              0.0000   XZ=              0.0000   YZ=              0.0000
 Traceless Quadrupole moment (field-independent basis, Debye-Ang):
   XX=             -0.0933   YY=             -0.0933   ZZ=              0.1866
   XY=              0.0000   XZ=              0.0000   YZ=              0.0000
 Octapole moment (field-independent basis, Debye-Ang**2):
  XXX=              0.0000  YYY=              0.0000  ZZZ=              0.0000  XYY=              0.0000
  XXY=              0.0000  XXZ=              1.7660  XZZ=              0.0000  YZZ=              0.0000
  YYZ=             -1.7660  XYZ=              0.0000
 Hexadecapole moment (field-independent basis, Debye-Ang**3):
 XXXX=            -21.1592 YYYY=            -21.1592 ZZZZ=            -70.7542 XXXY=              0.0000
 XXXZ=              0.0000 YYYX=              0.0000 YYYZ=              0.0000 ZZZX=              0.0000
 ZZZY=              0.0000 XXYY=             -7.7116 XXZZ=            -14.8147 YYZZ=            -14.8147
 XXYZ=              0.0000 YYXZ=              0.0000 ZZXY=              0.0000
 N-N= 3.329022871339D+01 E-N=-2.476099165603D+02  KE= 7.779635121605D+01
                          Isotropic Fermi Contact Couplings
        Atom                 a.u.       MegaHertz       Gauss      10(-4) cm-1
     1  C(13)              0.25880     145.47045      51.90747      48.52372
     2  H(1)              -0.04193     -93.70066     -33.43473     -31.25518
     3  H(1)              -0.04193     -93.70066     -33.43473     -31.25518
     4  C(13)             -0.25880    -145.47045     -51.90747     -48.52372
     5  H(1)               0.04193      93.70066      33.43473      31.25518
     6  H(1)               0.04193      93.70066      33.43473      31.25518
 --------------------------------------------------------
       Center         ----  Spin Dipole Couplings  ----
                      3XX-RR        3YY-RR        3ZZ-RR
 --------------------------------------------------------
     1   Atom        1.085876     -0.521335     -0.564541
     2   Atom        0.007296      0.044006     -0.051302
     3   Atom        0.007296      0.044006     -0.051302
     4   Atom        0.521335     -1.085876      0.564541
     5   Atom       -0.044006     -0.007296      0.051302
     6   Atom       -0.044006     -0.007296      0.051302
 --------------------------------------------------------
                        XY            XZ            YZ
 --------------------------------------------------------
     1   Atom        0.000000      0.000000      0.000000
     2   Atom        0.000000      0.000000     -0.055757
     3   Atom        0.000000      0.000000      0.055757
     4   Atom        0.000000      0.000000      0.000000
     5   Atom        0.000000      0.055757      0.000000
     6   Atom        0.000000     -0.055757      0.000000
 --------------------------------------------------------


 ---------------------------------------------------------------------------------
              Anisotropic Spin Dipole Couplings in Principal Axis System
 ---------------------------------------------------------------------------------

       Atom             a.u.   MegaHertz   Gauss  10(-4) cm-1        Axes

              Baa    -0.5645   -75.756   -27.032   -25.269  0.0000  0.0000  1.0000
     1 C(13)  Bbb    -0.5213   -69.958   -24.963   -23.336  0.0000  1.0000  0.0000
              Bcc     1.0859   145.714    51.994    48.605  1.0000  0.0000  0.0000
 
              Baa    -0.0770   -41.081   -14.659   -13.703  0.0000  0.4185  0.9082
     2 H(1)   Bbb     0.0073     3.893     1.389     1.298  1.0000  0.0000  0.0000
              Bcc     0.0697    37.188    13.270    12.405  0.0000  0.9082 -0.4185
 
              Baa    -0.0770   -41.081   -14.659   -13.703  0.0000 -0.4185  0.9082
     3 H(1)   Bbb     0.0073     3.893     1.389     1.298  1.0000  0.0000  0.0000
              Bcc     0.0697    37.188    13.270    12.405  0.0000  0.9082  0.4185
 
              Baa    -1.0859  -145.714   -51.994   -48.605  0.0000  1.0000  0.0000
     4 C(13)  Bbb     0.5213    69.958    24.963    23.336  1.0000  0.0000  0.0000
              Bcc     0.5645    75.756    27.032    25.269  0.0000  0.0000  1.0000
 
              Baa    -0.0697   -37.188   -13.270   -12.405  0.9082  0.0000 -0.4185
     5 H(1)   Bbb    -0.0073    -3.893    -1.389    -1.298  0.0000  1.0000  0.0000
              Bcc     0.0770    41.081    14.659    13.703  0.4185  0.0000  0.9082
 
              Baa    -0.0697   -37.188   -13.270   -12.405  0.9082  0.0000  0.4185
     6 H(1)   Bbb    -0.0073    -3.893    -1.389    -1.298  0.0000  1.0000  0.0000
              Bcc     0.0770    41.081    14.659    13.703 -0.4185  0.0000  0.9082
 

 ---------------------------------------------------------------------------------

   1 Symmetry operations used in ECPInt.
 ECPInt:  NShTT=     300 NPrTT=    1028 LenC2=     301 LenP2D=     979.
 LDataN:  DoStor=T MaxTD1= 5 Len=  102
 Calling FoFJK, ICntrl=      2127 FMM=F ISym2X=0 I1Cent= 0 IOpClX= 1 NMat=1 NMatS=1 NMatT=0.
 -------------------------------------------------------------------
 Center     Atomic                   Forces (Hartrees/Bohr)
 Number     Number              X              Y              Z
 -------------------------------------------------------------------
      1        6           0.000000000    0.000000000   -0.058845355
      2        1           0.000000000    0.014146243   -0.016210930
      3        1           0.000000000   -0.014146243   -0.016210930
      4        6           0.000000000    0.000000000    0.058845355
      5        1          -0.014146243    0.000000000    0.016210930
      6        1           0.014146243    0.000000000    0.016210930
 -------------------------------------------------------------------
 Cartesian Forces:  Max     0.058845355 RMS     0.022082161

 GradGradGradGradGradGradGradGradGradGradGradGradGradGradGradGradGradGrad
 Berny optimization.
 FormGI is forming the generalized inverse of G from B-inverse, IUseBI=4.
 Internal  Forces:  Max     0.091267215 RMS     0.025310777
 Search for a local minimum.
 Step number   1 out of a maximum of   26 on scan point     1 out of    46
 All quantities printed in internal units (Hartrees-Bohrs-Radians)
 Mixed Optimization -- RFO/linear search
 Second derivative matrix not updated -- first step.
 The second derivative matrix:
                          R1        R2        R3        R4        R5
           R1           0.37218
           R2           0.00000   0.37218
           R3           0.00000   0.00000   0.53930
           R4           0.00000   0.00000   0.00000   0.37218
           R5           0.00000   0.00000   0.00000   0.00000   0.37218
           A1           0.00000   0.00000   0.00000   0.00000   0.00000
           A2           0.00000   0.00000   0.00000   0.00000   0.00000
           A3           0.00000   0.00000   0.00000   0.00000   0.00000
           A4           0.00000   0.00000   0.00000   0.00000   0.00000
           A5           0.00000   0.00000   0.00000   0.00000   0.00000
           A6           0.00000   0.00000   0.00000   0.00000   0.00000
           Scan         0.00000   0.00000   0.00000   0.00000   0.00000
           D2           0.00000   0.00000   0.00000   0.00000   0.00000
           D3           0.00000   0.00000   0.00000   0.00000   0.00000
           D4           0.00000   0.00000   0.00000   0.00000   0.00000
           Rcons        0.00000   0.00000   0.00000   0.00000   0.00000
                          A1        A2        A3        A4        A5
           A1           0.16000
           A2           0.00000   0.16000
           A3           0.00000   0.00000   0.16000
           A4           0.00000   0.00000   0.00000   0.16000
           A5           0.00000   0.00000   0.00000   0.00000   0.16000
           A6           0.00000   0.00000   0.00000   0.00000   0.00000
           Scan         0.00000   0.00000   0.00000   0.00000   0.00000
           D2           0.00000   0.00000   0.00000   0.00000   0.00000
           D3           0.00000   0.00000   0.00000   0.00000   0.00000
           D4           0.00000   0.00000   0.00000   0.00000   0.00000
           Rcons        0.00000   0.00000   0.00000   0.00000   0.00000
                          A6       Scan       D2        D3        D4
           A6           0.16000
           Scan         0.00000   0.02681
           D2           0.00000   0.00000   0.02681
           D3           0.00000   0.00000   0.00000   0.02681
           D4           0.00000   0.00000   0.00000   0.00000   0.02681
           Rcons        0.00000   0.00000   0.00000   0.00000   0.00000
                         Rcons
           Rcons        0.20635
 ITU=  0
     Eigenvalues ---    0.02681   0.16000   0.16000   0.16000   0.16000
     Eigenvalues ---    0.37218   0.37218   0.37218   0.37218   0.53930
     Eigenvalues --- 1000.000001000.000001000.000001000.000001000.00000
     Eigenvalues --- 1000.00000
 RFO step:  Lambda=-2.05420741D-02 EMin= 2.68137411D-02
 Linear search not attempted -- first point.
 Iteration  1 RMS(Cart)=  0.08207087 RMS(Int)=  0.00064908
 Iteration  2 RMS(Cart)=  0.00074724 RMS(Int)=  0.00000028
 Iteration  3 RMS(Cart)=  0.00000029 RMS(Int)=  0.00000000
 Iteration  1 RMS(Cart)=  0.00000000 RMS(Int)=  0.00000000
 Variable       Old X    -DE/DX   Delta X   Delta X   Delta X     New X
                                 (Linear)    (Quad)   (Total)
    R1        2.02219   0.02038   0.00000   0.05191   0.05191   2.07410
    R2        2.02219   0.02038   0.00000   0.05191   0.05191   2.07410
    R3        2.56096   0.09127   0.00000   0.16302   0.16302   2.72398
    R4        2.02219   0.02038   0.00000   0.05191   0.05191   2.07410
    R5        2.02219   0.02038   0.00000   0.05191   0.05191   2.07410
    A1        2.08633  -0.00928   0.00000  -0.05140  -0.05140   2.03492
    A2        2.09843   0.00464   0.00000   0.02570   0.02570   2.12413
    A3        2.09843   0.00464   0.00000   0.02570   0.02570   2.12413
    A4        2.09843   0.00464   0.00000   0.02570   0.02570   2.12413
    A5        2.09843   0.00464   0.00000   0.02570   0.02570   2.12413
    A6        2.08633  -0.00928   0.00000  -0.05140  -0.05140   2.03492
   Scan       1.57080   0.00000   0.00000   0.00000   0.00000   1.57080
    D2       -1.57080   0.00000   0.00000   0.00000   0.00000  -1.57080
    D3       -1.57080   0.00000   0.00000   0.00000   0.00000  -1.57080
    D4        1.57080   0.00000   0.00000   0.00000   0.00000   1.57080
  Rcons       0.00000   0.00000   0.00000   0.00000   0.00000   0.00000
         Item               Value     Threshold  Converged?
 Maximum Force            0.091267     0.000450     NO 
 RMS     Force            0.027058     0.000300     NO 
 Maximum Displacement     0.153353     0.001800     NO 
 RMS     Displacement     0.082375     0.001200     NO 
 Predicted change in Energy=-1.073611D-02
 GradGradGradGradGradGradGradGradGradGradGradGradGradGradGradGradGradGrad

                          Input orientation:                          
 ---------------------------------------------------------------------
 Center     Atomic      Atomic             Coordinates (Angstroms)
 Number     Number       Type             X           Y           Z
 ---------------------------------------------------------------------
      1          6           0        0.000000    0.000000   -0.720734
      2          1           0        0.000000    0.933783   -1.297534
      3          1           0        0.000000   -0.933783   -1.297534
      4          6           0        0.000000    0.000000    0.720734
      5          1           0       -0.933783    0.000000    1.297534
      6          1           0        0.933783    0.000000    1.297534
 ---------------------------------------------------------------------
                    Distance matrix (angstroms):
                    1          2          3          4          5
     1  C    0.000000
     2  H    1.097565   0.000000
     3  H    1.097565   1.867565   0.000000
     4  C    1.441469   2.223816   2.223816   0.000000
     5  H    2.223816   2.911749   2.911749   1.097565   0.000000
     6  H    2.223816   2.911749   2.911749   1.097565   1.867565
                    6
     6  H    0.000000
 Symmetry turned off by external request.
 Stoichiometry    C2H4
 Framework group  D2D[C2(C.C),2SGD(H2)]
 Deg. of freedom     3
 Full point group                 D2D     NOp   8
 Rotational constants (GHZ):         143.7740238          24.0523629          24.0523629
 Standard basis: def2SVP (5D, 7F)
    48 basis functions,    78 primitive gaussians,    50 cartesian basis functions
     8 alpha electrons        8 beta electrons
       nuclear repulsion energy        31.7919272644 Hartrees.
 NAtoms=    6 NActive=    6 NUniq=    6 SFac= 1.00D+00 NAtFMM=   60 NAOKFM=F Big=F
 Integral buffers will be    131072 words long.
 Raffenetti 2 integral format.
 Two-electron integral symmetry is turned off.
 Nuclear repulsion after empirical dispersion term =       31.7919219654 Hartrees.
 One-electron integrals computed using PRISM.
   1 Symmetry operations used in ECPInt.
 ECPInt:  NShTT=     300 NPrTT=    1028 LenC2=     301 LenP2D=     973.
 LDataN:  DoStor=T MaxTD1= 4 Len=   56
 NBasis=    48 RedAO= T EigKep=  6.22D-03  NBF=    48
 NBsUse=    48 1.00D-06 EigRej= -1.00D+00 NBFU=    48
 Initial guess from the checkpoint file:  "C:\Users\zz\Desktop\ethene_relax_scan.chk"
 B after Tr=     0.000000    0.000000    0.000000
         Rot=    1.000000    0.000000    0.000000    0.000000 Ang=   0.00 deg.
 Initial guess <Sx>= 0.0000 <Sy>= 0.0000 <Sz>= 0.0000 <S**2>= 1.0141 S= 0.6243
 ExpMin= 1.22D-01 ExpMax= 1.24D+03 ExpMxC= 1.86D+02 IAcc=3 IRadAn=         5 AccDes= 0.00D+00
 Harris functional with IExCor= 1009 and IRadAn=      -1 diagonalized for initial guess.
 HarFok:  IExCor= 1009 AccDes= 0.00D+00 IRadAn=        -1 IDoV= 1 UseB2=F ITyADJ=14
 ICtDFT=  3500011 ScaDFX=  1.000000  1.000000  1.000000  1.000000
 FoFCou: FMM=F IPFlag=           0 FMFlag=      100000 FMFlg1=           0
         NFxFlg=           0 DoJE=T BraDBF=F KetDBF=T FulRan=T
         wScrn=  0.000000 ICntrl=       500 IOpCl=  0 I1Cent=   200000004 NGrid=           0
         NMat0=    1 NMatS0=      1 NMatT0=    0 NMatD0=    1 NMtDS0=    0 NMtDT0=    0
 Symmetry not used in FoFCou.
 Keep R1 and R2 ints in memory in canonical form, NReq=3131642.
 Requested convergence on RMS density matrix=1.00D-08 within  32 cycles.
 Requested convergence on MAX density matrix=1.00D-06.
 Requested convergence on             energy=1.00D-06.
 Virtual orbitals will be shifted by   0.300 hartree.
 No special actions if energy rises.
 Integral accuracy reduced to 1.0D-05 until final iterations.
 Initial convergence to 1.0D-05 achieved.  Increase integral accuracy.
 SCF Done:  E(UM062X) =  -78.3740877007     A.U. after   14 cycles
            NFock= 14  Conv=0.13D-08     -V/T= 2.0119
 <Sx>= 0.0000 <Sy>= 0.0000 <Sz>= 0.0000 <S**2>= 1.0142 S= 0.6244
 <L.S>= 0.000000000000E+00
 Annihilation of the first spin contaminant:
 S**2 before annihilation     1.0142,   after     0.1143
 QCSCF skips out because SCF is already converged.
   1 Symmetry operations used in ECPInt.
 ECPInt:  NShTT=     300 NPrTT=    1028 LenC2=     301 LenP2D=     973.
 LDataN:  DoStor=T MaxTD1= 5 Len=  102
 Calling FoFJK, ICntrl=      2127 FMM=F ISym2X=0 I1Cent= 0 IOpClX= 1 NMat=1 NMatS=1 NMatT=0.
 -------------------------------------------------------------------
 Center     Atomic                   Forces (Hartrees/Bohr)
 Number     Number              X              Y              Z
 -------------------------------------------------------------------
      1        6           0.000000000    0.000000000   -0.006748256
      2        1           0.000000000   -0.001170140    0.000023610
      3        1           0.000000000    0.001170140    0.000023610
      4        6           0.000000000    0.000000000    0.006748256
      5        1           0.001170140    0.000000000   -0.000023610
      6        1          -0.001170140    0.000000000   -0.000023610
 -------------------------------------------------------------------
 Cartesian Forces:  Max     0.006748256 RMS     0.002316092

 GradGradGradGradGradGradGradGradGradGradGradGradGradGradGradGradGradGrad
 Berny optimization.
 Using GEDIIS/GDIIS optimizer.
 FormGI is forming the generalized inverse of G from B-inverse, IUseBI=4.
 Internal  Forces:  Max     0.006701036 RMS     0.001785309
 Search for a local minimum.
 Step number   2 out of a maximum of   26 on scan point     1 out of    46
 All quantities printed in internal units (Hartrees-Bohrs-Radians)
 Mixed Optimization -- RFO/linear search
 Update second derivatives using D2CorX and points    1    2
 DE= -1.02D-02 DEPred=-1.07D-02 R= 9.51D-01
 TightC=F SS=  1.41D+00  RLast= 2.13D-01 DXNew= 5.0454D-01 6.3837D-01
 Trust test= 9.51D-01 RLast= 2.13D-01 DXMaxT set to 5.05D-01
 The second derivative matrix:
                          R1        R2        R3        R4        R5
           R1           0.37658
           R2           0.00440   0.37658
           R3           0.00602   0.00602   0.51131
           R4           0.00440   0.00440   0.00602   0.37658
           R5           0.00440   0.00440   0.00602   0.00440   0.37658
           A1          -0.00116  -0.00116   0.00025  -0.00116  -0.00116
           A2           0.00058   0.00058  -0.00013   0.00058   0.00058
           A3           0.00058   0.00058  -0.00013   0.00058   0.00058
           A4           0.00058   0.00058  -0.00013   0.00058   0.00058
           A5           0.00058   0.00058  -0.00013   0.00058   0.00058
           A6          -0.00116  -0.00116   0.00025  -0.00116  -0.00116
           Scan         0.00000   0.00000   0.00000   0.00000   0.00000
           D2           0.00000   0.00000   0.00000   0.00000   0.00000
           D3           0.00000   0.00000   0.00000   0.00000   0.00000
           D4           0.00000   0.00000   0.00000   0.00000   0.00000
           Rcons        0.00000   0.00000   0.00000   0.00000   0.00000
                          A1        A2        A3        A4        A5
           A1           0.16021
           A2          -0.00011   0.16005
           A3          -0.00011   0.00005   0.16005
           A4          -0.00011   0.00005   0.00005   0.16005
           A5          -0.00011   0.00005   0.00005   0.00005   0.16005
           A6           0.00021  -0.00011  -0.00011  -0.00011  -0.00011
           Scan         0.00000   0.00000   0.00000   0.00000   0.00000
           D2           0.00000   0.00000   0.00000   0.00000   0.00000
           D3           0.00000   0.00000   0.00000   0.00000   0.00000
           D4           0.00000   0.00000   0.00000   0.00000   0.00000
           Rcons        0.00000   0.00000   0.00000   0.00000   0.00000
                          A6       Scan       D2        D3        D4
           A6           0.16021
           Scan         0.00000   0.02681
           D2           0.00000   0.00000   0.02681
           D3           0.00000   0.00000   0.00000   0.02681
           D4           0.00000   0.00000   0.00000   0.00000   0.02681
           Rcons        0.00000   0.00000   0.00000   0.00000   0.00000
                         Rcons
           Rcons        0.20635
 ITU=  1  0
 Use linear search instead of GDIIS.
     Eigenvalues ---    0.02681   0.16000   0.16000   0.16000   0.16057
     Eigenvalues ---    0.37218   0.37218   0.37218   0.38867   0.51249
     Eigenvalues --- 1000.000001000.000001000.000001000.000001000.00000
     Eigenvalues --- 1000.00000
 RFO step:  Lambda=-6.16894476D-05 EMin= 2.68137411D-02
 Quartic linear search produced a step of  0.06297.
 Iteration  1 RMS(Cart)=  0.00718793 RMS(Int)=  0.00000669
 Iteration  2 RMS(Cart)=  0.00000657 RMS(Int)=  0.00000000
 Iteration  3 RMS(Cart)=  0.00000000 RMS(Int)=  0.00000000
 Iteration  1 RMS(Cart)=  0.00000000 RMS(Int)=  0.00000000
 Variable       Old X    -DE/DX   Delta X   Delta X   Delta X     New X
                                 (Linear)    (Quad)   (Total)
    R1        2.07410  -0.00101   0.00327  -0.00550  -0.00223   2.07187
    R2        2.07410  -0.00101   0.00327  -0.00550  -0.00223   2.07187
    R3        2.72398   0.00670   0.01027   0.00450   0.01477   2.73875
    R4        2.07410  -0.00101   0.00327  -0.00550  -0.00223   2.07187
    R5        2.07410  -0.00101   0.00327  -0.00550  -0.00223   2.07187
    A1        2.03492  -0.00082  -0.00324  -0.00352  -0.00676   2.02816
    A2        2.12413   0.00041   0.00162   0.00176   0.00338   2.12751
    A3        2.12413   0.00041   0.00162   0.00176   0.00338   2.12751
    A4        2.12413   0.00041   0.00162   0.00176   0.00338   2.12751
    A5        2.12413   0.00041   0.00162   0.00176   0.00338   2.12751
    A6        2.03492  -0.00082  -0.00324  -0.00352  -0.00676   2.02816
   Scan       1.57080   0.00000   0.00000   0.00000   0.00000   1.57080
    D2       -1.57080   0.00000   0.00000   0.00000   0.00000  -1.57080
    D3       -1.57080   0.00000   0.00000   0.00000   0.00000  -1.57080
    D4        1.57080   0.00000   0.00000   0.00000   0.00000   1.57080
  Rcons       0.00000   0.00000   0.00000   0.00000   0.00000   0.00000
         Item               Value     Threshold  Converged?
 Maximum Force            0.006701     0.000450     NO 
 RMS     Force            0.001909     0.000300     NO 
 Maximum Displacement     0.012166     0.001800     NO 
 RMS     Displacement     0.007185     0.001200     NO 
 Predicted change in Energy=-5.506216D-05
 GradGradGradGradGradGradGradGradGradGradGradGradGradGradGradGradGradGrad

                          Input orientation:                          
 ---------------------------------------------------------------------
 Center     Atomic      Atomic             Coordinates (Angstroms)
 Number     Number       Type             X           Y           Z
 ---------------------------------------------------------------------
      1          6           0        0.000000    0.000000   -0.724642
      2          1           0        0.000000    0.930827   -1.303973
      3          1           0        0.000000   -0.930827   -1.303973
      4          6           0        0.000000    0.000000    0.724642
      5          1           0       -0.930827    0.000000    1.303973
      6          1           0        0.930827    0.000000    1.303973
 ---------------------------------------------------------------------
                    Distance matrix (angstroms):
                    1          2          3          4          5
     1  C    0.000000
     2  H    1.096386   0.000000
     3  H    1.096386   1.861654   0.000000
     4  C    1.449284   2.231976   2.231976   0.000000
     5  H    2.231976   2.921345   2.921345   1.096386   0.000000
     6  H    2.231976   2.921345   2.921345   1.096386   1.861654
                    6
     6  H    0.000000
 Symmetry turned off by external request.
 Stoichiometry    C2H4
 Framework group  D2D[C2(C.C),2SGD(H2)]
 Deg. of freedom     3
 Full point group                 D2D     NOp   8
 Rotational constants (GHZ):         144.6884698          23.8346107          23.8346107
 Standard basis: def2SVP (5D, 7F)
    48 basis functions,    78 primitive gaussians,    50 cartesian basis functions
     8 alpha electrons        8 beta electrons
       nuclear repulsion energy        31.7116311842 Hartrees.
 NAtoms=    6 NActive=    6 NUniq=    6 SFac= 1.00D+00 NAtFMM=   60 NAOKFM=F Big=F
 Integral buffers will be    131072 words long.
 Raffenetti 2 integral format.
 Two-electron integral symmetry is turned off.
 Nuclear repulsion after empirical dispersion term =       31.7116257492 Hartrees.
 One-electron integrals computed using PRISM.
   1 Symmetry operations used in ECPInt.
 ECPInt:  NShTT=     300 NPrTT=    1028 LenC2=     301 LenP2D=     965.
 LDataN:  DoStor=T MaxTD1= 4 Len=   56
 NBasis=    48 RedAO= T EigKep=  6.40D-03  NBF=    48
 NBsUse=    48 1.00D-06 EigRej= -1.00D+00 NBFU=    48
 Initial guess from the checkpoint file:  "C:\Users\zz\Desktop\ethene_relax_scan.chk"
 B after Tr=     0.000000    0.000000    0.000000
         Rot=    1.000000    0.000000    0.000000    0.000000 Ang=   0.00 deg.
 Initial guess <Sx>= 0.0000 <Sy>= 0.0000 <Sz>= 0.0000 <S**2>= 1.0143 S= 0.6244
 Keep R1 and R2 ints in memory in canonical form, NReq=3131642.
 Requested convergence on RMS density matrix=1.00D-08 within  32 cycles.
 Requested convergence on MAX density matrix=1.00D-06.
 Requested convergence on             energy=1.00D-06.
 Virtual orbitals will be shifted by   0.300 hartree.
 No special actions if energy rises.
 SCF Done:  E(UM062X) =  -78.3741555202     A.U. after   13 cycles
            NFock= 13  Conv=0.43D-08     -V/T= 2.0120
 <Sx>= 0.0000 <Sy>= 0.0000 <Sz>= 0.0000 <S**2>= 1.0142 S= 0.6244
 <L.S>= 0.000000000000E+00
 Annihilation of the first spin contaminant:
 S**2 before annihilation     1.0142,   after     0.1144
 QCSCF skips out because SCF is already converged.
   1 Symmetry operations used in ECPInt.
 ECPInt:  NShTT=     300 NPrTT=    1028 LenC2=     301 LenP2D=     965.
 LDataN:  DoStor=T MaxTD1= 5 Len=  102
 Calling FoFJK, ICntrl=      2127 FMM=F ISym2X=0 I1Cent= 0 IOpClX= 1 NMat=1 NMatS=1 NMatT=0.
 -------------------------------------------------------------------
 Center     Atomic                   Forces (Hartrees/Bohr)
 Number     Number              X              Y              Z
 -------------------------------------------------------------------
      1        6           0.000000000    0.000000000   -0.001476970
      2        1           0.000000000   -0.000201017    0.000303297
      3        1           0.000000000    0.000201017    0.000303297
      4        6           0.000000000    0.000000000    0.001476970
      5        1           0.000201017    0.000000000   -0.000303297
      6        1          -0.000201017    0.000000000   -0.000303297
 -------------------------------------------------------------------
 Cartesian Forces:  Max     0.001476970 RMS     0.000521348

 GradGradGradGradGradGradGradGradGradGradGradGradGradGradGradGradGradGrad
 Berny optimization.
 Using GEDIIS/GDIIS optimizer.
 FormGI is forming the generalized inverse of G from B-inverse, IUseBI=4.
 Internal  Forces:  Max     0.000870377 RMS     0.000287944
 Search for a local minimum.
 Step number   3 out of a maximum of   26 on scan point     1 out of    46
 All quantities printed in internal units (Hartrees-Bohrs-Radians)
 Mixed Optimization -- En-DIIS/RFO-DIIS
 Update second derivatives using D2CorX and points    1    2    3
 DE= -6.78D-05 DEPred=-5.51D-05 R= 1.23D+00
 TightC=F SS=  1.41D+00  RLast= 1.94D-02 DXNew= 8.4853D-01 5.8099D-02
 Trust test= 1.23D+00 RLast= 1.94D-02 DXMaxT set to 5.05D-01
 The second derivative matrix:
                          R1        R2        R3        R4        R5
           R1           0.37683
           R2           0.00466   0.37683
           R3           0.01171   0.01171   0.40825
           R4           0.00466   0.00466   0.01171   0.37683
           R5           0.00466   0.00466   0.01171   0.00466   0.37683
           A1          -0.00100  -0.00100   0.00465  -0.00100  -0.00100
           A2           0.00050   0.00050  -0.00233   0.00050   0.00050
           A3           0.00050   0.00050  -0.00233   0.00050   0.00050
           A4           0.00050   0.00050  -0.00233   0.00050   0.00050
           A5           0.00050   0.00050  -0.00233   0.00050   0.00050
           A6          -0.00100  -0.00100   0.00465  -0.00100  -0.00100
           Scan         0.00000   0.00000   0.00000   0.00000   0.00000
           D2           0.00000   0.00000   0.00000   0.00000   0.00000
           D3           0.00000   0.00000   0.00000   0.00000   0.00000
           D4           0.00000   0.00000   0.00000   0.00000   0.00000
           Rcons        0.00000   0.00000   0.00000   0.00000   0.00000
                          A1        A2        A3        A4        A5
           A1           0.16135
           A2          -0.00068   0.16034
           A3          -0.00068   0.00034   0.16034
           A4          -0.00068   0.00034   0.00034   0.16034
           A5          -0.00068   0.00034   0.00034   0.00034   0.16034
           A6           0.00135  -0.00068  -0.00068  -0.00068  -0.00068
           Scan         0.00000   0.00000   0.00000   0.00000   0.00000
           D2           0.00000   0.00000   0.00000   0.00000   0.00000
           D3           0.00000   0.00000   0.00000   0.00000   0.00000
           D4           0.00000   0.00000   0.00000   0.00000   0.00000
           Rcons        0.00000   0.00000   0.00000   0.00000   0.00000
                          A6       Scan       D2        D3        D4
           A6           0.16135
           Scan         0.00000   0.02681
           D2           0.00000   0.00000   0.02681
           D3           0.00000   0.00000   0.00000   0.02681
           D4           0.00000   0.00000   0.00000   0.00000   0.02681
           Rcons        0.00000   0.00000   0.00000   0.00000   0.00000
                         Rcons
           Rcons        0.20635
 ITU=  1  1  0
 Use linear search instead of GDIIS.
     Eigenvalues ---    0.02681   0.16000   0.16000   0.16000   0.16371
     Eigenvalues ---    0.37218   0.37218   0.37218   0.37480   0.42461
     Eigenvalues --- 1000.000001000.000001000.000001000.000001000.00000
     Eigenvalues --- 1000.00000
 RFO step:  Lambda=-2.64712651D-06 EMin= 2.68137411D-02
 Quartic linear search produced a step of  0.10395.
 Iteration  1 RMS(Cart)=  0.00044426 RMS(Int)=  0.00000028
 Iteration  2 RMS(Cart)=  0.00000032 RMS(Int)=  0.00000000
 Iteration  1 RMS(Cart)=  0.00000000 RMS(Int)=  0.00000000
 Variable       Old X    -DE/DX   Delta X   Delta X   Delta X     New X
                                 (Linear)    (Quad)   (Total)
    R1        2.07187  -0.00033  -0.00023  -0.00068  -0.00091   2.07096
    R2        2.07187  -0.00033  -0.00023  -0.00068  -0.00091   2.07096
    R3        2.73875   0.00087   0.00154   0.00068   0.00221   2.74096
    R4        2.07187  -0.00033  -0.00023  -0.00068  -0.00091   2.07096
    R5        2.07187  -0.00033  -0.00023  -0.00068  -0.00091   2.07096
    A1        2.02816   0.00021  -0.00070   0.00187   0.00117   2.02933
    A2        2.12751  -0.00010   0.00035  -0.00094  -0.00058   2.12693
    A3        2.12751  -0.00010   0.00035  -0.00094  -0.00058   2.12693
    A4        2.12751  -0.00010   0.00035  -0.00094  -0.00058   2.12693
    A5        2.12751  -0.00010   0.00035  -0.00094  -0.00058   2.12693
    A6        2.02816   0.00021  -0.00070   0.00187   0.00117   2.02933
   Scan       1.57080   0.00000   0.00000   0.00000   0.00000   1.57080
    D2       -1.57080   0.00000   0.00000   0.00000   0.00000  -1.57080
    D3       -1.57080   0.00000   0.00000   0.00000   0.00000  -1.57080
    D4        1.57080   0.00000   0.00000   0.00000   0.00000   1.57080
  Rcons       0.00000   0.00000   0.00000   0.00000   0.00000   0.00000
         Item               Value     Threshold  Converged?
 Maximum Force            0.000870     0.000450     NO 
 RMS     Force            0.000308     0.000300     NO 
 Maximum Displacement     0.001107     0.001800     YES
 RMS     Displacement     0.000444     0.001200     YES
 Predicted change in Energy=-1.925788D-06
 GradGradGradGradGradGradGradGradGradGradGradGradGradGradGradGradGradGrad

                          Input orientation:                          
 ---------------------------------------------------------------------
 Center     Atomic      Atomic             Coordinates (Angstroms)
 Number     Number       Type             X           Y           Z
 ---------------------------------------------------------------------
      1          6           0        0.000000    0.000000   -0.725228
      2          1           0        0.000000    0.930758   -1.303761
      3          1           0        0.000000   -0.930758   -1.303761
      4          6           0        0.000000    0.000000    0.725228
      5          1           0       -0.930758    0.000000    1.303761
      6          1           0        0.930758    0.000000    1.303761
 ---------------------------------------------------------------------
                    Distance matrix (angstroms):
                    1          2          3          4          5
     1  C    0.000000
     2  H    1.095907   0.000000
     3  H    1.095907   1.861516   0.000000
     4  C    1.450455   2.232287   2.232287   0.000000
     5  H    2.232287   2.920924   2.920924   1.095907   0.000000
     6  H    2.232287   2.920924   2.920924   1.095907   1.861516
                    6
     6  H    0.000000
 Symmetry turned off by external request.
 Stoichiometry    C2H4
 Framework group  D2D[C2(C.C),2SGD(H2)]
 Deg. of freedom     3
 Full point group                 D2D     NOp   8
 Rotational constants (GHZ):         144.7100627          23.8145008          23.8145008
 Standard basis: def2SVP (5D, 7F)
    48 basis functions,    78 primitive gaussians,    50 cartesian basis functions
     8 alpha electrons        8 beta electrons
       nuclear repulsion energy        31.7054385059 Hartrees.
 NAtoms=    6 NActive=    6 NUniq=    6 SFac= 1.00D+00 NAtFMM=   60 NAOKFM=F Big=F
 Integral buffers will be    131072 words long.
 Raffenetti 2 integral format.
 Two-electron integral symmetry is turned off.
 Nuclear repulsion after empirical dispersion term =       31.7054330763 Hartrees.
 One-electron integrals computed using PRISM.
   1 Symmetry operations used in ECPInt.
 ECPInt:  NShTT=     300 NPrTT=    1028 LenC2=     301 LenP2D=     965.
 LDataN:  DoStor=T MaxTD1= 4 Len=   56
 NBasis=    48 RedAO= T EigKep=  6.43D-03  NBF=    48
 NBsUse=    48 1.00D-06 EigRej= -1.00D+00 NBFU=    48
 Initial guess from the checkpoint file:  "C:\Users\zz\Desktop\ethene_relax_scan.chk"
 B after Tr=     0.000000    0.000000    0.000000
         Rot=    1.000000    0.000000    0.000000    0.000000 Ang=   0.00 deg.
 Initial guess <Sx>= 0.0000 <Sy>= 0.0000 <Sz>= 0.0000 <S**2>= 1.0142 S= 0.6244
 Keep R1 and R2 ints in memory in canonical form, NReq=3131642.
 Requested convergence on RMS density matrix=1.00D-08 within  32 cycles.
 Requested convergence on MAX density matrix=1.00D-06.
 Requested convergence on             energy=1.00D-06.
 Virtual orbitals will be shifted by   0.300 hartree.
 No special actions if energy rises.
 SCF Done:  E(UM062X) =  -78.3741579849     A.U. after   11 cycles
            NFock= 11  Conv=0.58D-08     -V/T= 2.0120
 <Sx>= 0.0000 <Sy>= 0.0000 <Sz>= 0.0000 <S**2>= 1.0142 S= 0.6244
 <L.S>= 0.000000000000E+00
 Annihilation of the first spin contaminant:
 S**2 before annihilation     1.0142,   after     0.1142
 QCSCF skips out because SCF is already converged.
   1 Symmetry operations used in ECPInt.
 ECPInt:  NShTT=     300 NPrTT=    1028 LenC2=     301 LenP2D=     965.
 LDataN:  DoStor=T MaxTD1= 5 Len=  102
 Calling FoFJK, ICntrl=      2127 FMM=F ISym2X=0 I1Cent= 0 IOpClX= 1 NMat=1 NMatS=1 NMatT=0.
 -------------------------------------------------------------------
 Center     Atomic                   Forces (Hartrees/Bohr)
 Number     Number              X              Y              Z
 -------------------------------------------------------------------
      1        6           0.000000000    0.000000000   -0.000405980
      2        1           0.000000000    0.000018494    0.000113427
      3        1           0.000000000   -0.000018494    0.000113427
      4        6           0.000000000    0.000000000    0.000405980
      5        1          -0.000018494    0.000000000   -0.000113427
      6        1           0.000018494    0.000000000   -0.000113427
 -------------------------------------------------------------------
 Cartesian Forces:  Max     0.000405980 RMS     0.000145768

 GradGradGradGradGradGradGradGradGradGradGradGradGradGradGradGradGradGrad
 Berny optimization.
 Using GEDIIS/GDIIS optimizer.
 FormGI is forming the generalized inverse of G from B-inverse, IUseBI=4.
 Internal  Forces:  Max     0.000179126 RMS     0.000080724
 Search for a local minimum.
 Step number   4 out of a maximum of   26 on scan point     1 out of    46
 All quantities printed in internal units (Hartrees-Bohrs-Radians)
 Mixed Optimization -- En-DIIS/RFO-DIIS
 Swapping is turned off.
 Update second derivatives using D2CorX and points    1    2    3    4
 DE= -2.46D-06 DEPred=-1.93D-06 R= 1.28D+00
 TightC=F SS=  1.41D+00  RLast= 3.51D-03 DXNew= 8.4853D-01 1.0516D-02
 Trust test= 1.28D+00 RLast= 3.51D-03 DXMaxT set to 5.05D-01
 The second derivative matrix:
                          R1        R2        R3        R4        R5
           R1           0.37687
           R2           0.00469   0.37687
           R3           0.01278   0.01278   0.37834
           R4           0.00469   0.00469   0.01278   0.37687
           R5           0.00469   0.00469   0.01278   0.00469   0.37687
           A1           0.01128   0.01128  -0.02858   0.01128   0.01128
           A2          -0.00564  -0.00564   0.01429  -0.00564  -0.00564
           A3          -0.00564  -0.00564   0.01429  -0.00564  -0.00564
           A4          -0.00564  -0.00564   0.01429  -0.00564  -0.00564
           A5          -0.00564  -0.00564   0.01429  -0.00564  -0.00564
           A6           0.01128   0.01128  -0.02858   0.01128   0.01128
           Scan         0.00000   0.00000   0.00000   0.00000   0.00000
           D2           0.00000   0.00000   0.00000   0.00000   0.00000
           D3           0.00000   0.00000   0.00000   0.00000   0.00000
           D4           0.00000   0.00000   0.00000   0.00000   0.00000
           Rcons        0.00000   0.00000   0.00000   0.00000   0.00000
                          A1        A2        A3        A4        A5
           A1           0.15423
           A2           0.00288   0.15856
           A3           0.00288  -0.00144   0.15856
           A4           0.00288  -0.00144  -0.00144   0.15856
           A5           0.00288  -0.00144  -0.00144  -0.00144   0.15856
           A6          -0.00577   0.00288   0.00288   0.00288   0.00288
           Scan         0.00000   0.00000   0.00000   0.00000   0.00000
           D2           0.00000   0.00000   0.00000   0.00000   0.00000
           D3           0.00000   0.00000   0.00000   0.00000   0.00000
           D4           0.00000   0.00000   0.00000   0.00000   0.00000
           Rcons        0.00000   0.00000   0.00000   0.00000   0.00000
                          A6       Scan       D2        D3        D4
           A6           0.15423
           Scan         0.00000   0.02681
           D2           0.00000   0.00000   0.02681
           D3           0.00000   0.00000   0.00000   0.02681
           D4           0.00000   0.00000   0.00000   0.00000   0.02681
           Rcons        0.00000   0.00000   0.00000   0.00000   0.00000
                         Rcons
           Rcons        0.20635
 ITU=  1  1  1  0
     Eigenvalues ---    0.02681   0.12561   0.16000   0.16000   0.16000
     Eigenvalues ---    0.37218   0.37218   0.37218   0.37541   0.41097
     Eigenvalues --- 1000.000001000.000001000.000001000.000001000.00000
     Eigenvalues --- 1000.00000
 En-DIIS/RFO-DIIS IScMMF=       -3 using points:     4    3
 RFO step:  Lambda=-2.74250527D-07.
 DidBck=F Rises=F RFO-DIIS coefs:    1.38360   -0.38360
 Iteration  1 RMS(Cart)=  0.00050614 RMS(Int)=  0.00000022
 Iteration  2 RMS(Cart)=  0.00000022 RMS(Int)=  0.00000000
 Iteration  1 RMS(Cart)=  0.00000000 RMS(Int)=  0.00000000
 Variable       Old X    -DE/DX   Delta X   Delta X   Delta X     New X
                                 (Linear)    (Quad)   (Total)
    R1        2.07096  -0.00004  -0.00035   0.00010  -0.00025   2.07071
    R2        2.07096  -0.00004  -0.00035   0.00010  -0.00025   2.07071
    R3        2.74096   0.00018   0.00085  -0.00006   0.00079   2.74176
    R4        2.07096  -0.00004  -0.00035   0.00010  -0.00025   2.07071
    R5        2.07096  -0.00004  -0.00035   0.00010  -0.00025   2.07071
    A1        2.02933   0.00015   0.00045   0.00082   0.00126   2.03059
    A2        2.12693  -0.00007  -0.00022  -0.00041  -0.00063   2.12630
    A3        2.12693  -0.00007  -0.00022  -0.00041  -0.00063   2.12630
    A4        2.12693  -0.00007  -0.00022  -0.00041  -0.00063   2.12630
    A5        2.12693  -0.00007  -0.00022  -0.00041  -0.00063   2.12630
    A6        2.02933   0.00015   0.00045   0.00082   0.00126   2.03059
   Scan       1.57080   0.00000   0.00000   0.00000   0.00000   1.57080
    D2       -1.57080   0.00000   0.00000   0.00000   0.00000  -1.57080
    D3       -1.57080   0.00000   0.00000   0.00000   0.00000  -1.57080
    D4        1.57080   0.00000   0.00000   0.00000   0.00000   1.57080
  Rcons       0.00000   0.00000   0.00000   0.00000   0.00000   0.00000
         Item               Value     Threshold  Converged?
 Maximum Force            0.000179     0.000450     YES
 RMS     Force            0.000086     0.000300     YES
 Maximum Displacement     0.000846     0.001800     YES
 RMS     Displacement     0.000506     0.001200     YES
 Predicted change in Energy=-3.707216D-07
 Optimization completed.
    -- Stationary point found.
                           ----------------------------
                           !   Optimized Parameters   !
                           ! (Angstroms and Degrees)  !
 --------------------------                            --------------------------
 ! Name  Definition              Value          Derivative Info.                !
 --------------------------------------------------------------------------------
 ! R1    R(1,2)                  1.0959         -DE/DX =    0.0                 !
 ! R2    R(1,3)                  1.0959         -DE/DX =    0.0                 !
 ! R3    R(1,4)                  1.4505         -DE/DX =    0.0002              !
 ! R4    R(4,5)                  1.0959         -DE/DX =    0.0                 !
 ! R5    R(4,6)                  1.0959         -DE/DX =    0.0                 !
 ! A1    A(2,1,3)              116.2721         -DE/DX =    0.0001              !
 ! A2    A(2,1,4)              121.864          -DE/DX =   -0.0001              !
 ! A3    A(3,1,4)              121.864          -DE/DX =   -0.0001              !
 ! A4    A(1,4,5)              121.864          -DE/DX =   -0.0001              !
 ! A5    A(1,4,6)              121.864          -DE/DX =   -0.0001              !
 ! A6    A(5,4,6)              116.2721         -DE/DX =    0.0001              !
 ! Scan  D(2,1,4,5)             90.0            -DE/DX =    0.0                 !
 ! D2    D(2,1,4,6)            -90.0            -DE/DX =    0.0                 !
 ! D3    D(3,1,4,5)            -90.0            -DE/DX =    0.0                 !
 ! D4    D(3,1,4,6)             90.0            -DE/DX =    0.0                 !
 ! Rcons GIC-1                   0.0            -DE/DX =    0.0                 !
 --------------------------------------------------------------------------------
 NOTE: GIC-type coordinates are in arbitrary units.
 Iteration  1 RMS(Cart)=  0.00409586 RMS(Int)=  0.00666510
 Iteration  2 RMS(Cart)=  0.00001159 RMS(Int)=  0.00666509
 Iteration  3 RMS(Cart)=  0.00000000 RMS(Int)=  0.00666509
 Iteration  1 RMS(Cart)=  0.00224219 RMS(Int)=  0.00527339
 Iteration  2 RMS(Cart)=  0.00174753 RMS(Int)=  0.00565788
 Iteration  3 RMS(Cart)=  0.00141568 RMS(Int)=  0.00645281
 Iteration  4 RMS(Cart)=  0.00115207 RMS(Int)=  0.00732078
 Iteration  5 RMS(Cart)=  0.00093809 RMS(Int)=  0.00812762
 Iteration  6 RMS(Cart)=  0.00076391 RMS(Int)=  0.00883280
 Iteration  7 RMS(Cart)=  0.00062207 RMS(Int)=  0.00943175
 Iteration  8 RMS(Cart)=  0.00050657 RMS(Int)=  0.00993289
 Iteration  9 RMS(Cart)=  0.00041252 RMS(Int)=  0.01034856
 Iteration 10 RMS(Cart)=  0.00033592 RMS(Int)=  0.01069149
 Iteration 11 RMS(Cart)=  0.00027355 RMS(Int)=  0.01097340
 Iteration 12 RMS(Cart)=  0.00022276 RMS(Int)=  0.01120460
 Iteration 13 RMS(Cart)=  0.00018140 RMS(Int)=  0.01139389
 Iteration 14 RMS(Cart)=  0.00014772 RMS(Int)=  0.01154867
 Iteration 15 RMS(Cart)=  0.00012030 RMS(Int)=  0.01167512
 Iteration 16 RMS(Cart)=  0.00009796 RMS(Int)=  0.01177835
 Iteration 17 RMS(Cart)=  0.00007977 RMS(Int)=  0.01186259
 Iteration 18 RMS(Cart)=  0.00006496 RMS(Int)=  0.01193129
 Iteration 19 RMS(Cart)=  0.00005290 RMS(Int)=  0.01198731
 Iteration 20 RMS(Cart)=  0.00004308 RMS(Int)=  0.01203298
 Iteration 21 RMS(Cart)=  0.00003508 RMS(Int)=  0.01207019
 Iteration 22 RMS(Cart)=  0.00002857 RMS(Int)=  0.01210052
 Iteration 23 RMS(Cart)=  0.00002326 RMS(Int)=  0.01212523
 Iteration 24 RMS(Cart)=  0.00001894 RMS(Int)=  0.01214536
 Iteration 25 RMS(Cart)=  0.00001543 RMS(Int)=  0.01216176
 Iteration 26 RMS(Cart)=  0.00001256 RMS(Int)=  0.01217512
 Iteration 27 RMS(Cart)=  0.00001023 RMS(Int)=  0.01218600
 Iteration 28 RMS(Cart)=  0.00000833 RMS(Int)=  0.01219486
 Iteration 29 RMS(Cart)=  0.00000678 RMS(Int)=  0.01220208
 Iteration 30 RMS(Cart)=  0.00000552 RMS(Int)=  0.01220796
 Iteration 31 RMS(Cart)=  0.00000450 RMS(Int)=  0.01221274
 Iteration 32 RMS(Cart)=  0.00000366 RMS(Int)=  0.01221664
 Iteration 33 RMS(Cart)=  0.00000298 RMS(Int)=  0.01221982
 Iteration 34 RMS(Cart)=  0.00000243 RMS(Int)=  0.01222240
 Iteration 35 RMS(Cart)=  0.00000198 RMS(Int)=  0.01222451
 Iteration 36 RMS(Cart)=  0.00000161 RMS(Int)=  0.01222622
 Iteration 37 RMS(Cart)=  0.00000131 RMS(Int)=  0.01222762
 Iteration 38 RMS(Cart)=  0.00000107 RMS(Int)=  0.01222876
 Iteration 39 RMS(Cart)=  0.00000087 RMS(Int)=  0.01222968
 GradGradGradGradGradGradGradGradGradGradGradGradGradGradGradGradGradGrad

                          Input orientation:                          
 ---------------------------------------------------------------------
 Center     Atomic      Atomic             Coordinates (Angstroms)
 Number     Number       Type             X           Y           Z
 ---------------------------------------------------------------------
      1          6           0       -0.000002    0.000000   -0.725438
      2          1           0       -0.016248    0.930874   -1.303316
      3          1           0        0.016241   -0.930882   -1.303312
      4          6           0        0.000000    0.000002    0.725438
      5          1           0       -0.930874    0.016248    1.303316
      6          1           0        0.930882   -0.016241    1.303312
 ---------------------------------------------------------------------
                    Distance matrix (angstroms):
                    1          2          3          4          5
     1  C    0.000000
     2  H    1.095780   0.000000
     3  H    1.095785   1.862040   0.000000
     4  C    1.450875   2.232180   2.232181   0.000000
     5  H    2.232180   2.909916   2.930630   1.095780   0.000000
     6  H    2.232181   2.930630   2.909918   1.095785   1.862040
                    6
     6  H    0.000000
 Symmetry turned off by external request.
 Stoichiometry    C2H4
 Framework group  C2[X(C2H4)]
 Deg. of freedom     7
 Full point group                 C2      NOp   2
 Rotational constants (GHZ):         144.6285556          23.8790538          23.7422816
 Standard basis: def2SVP (5D, 7F)
    48 basis functions,    78 primitive gaussians,    50 cartesian basis functions
     8 alpha electrons        8 beta electrons
       nuclear repulsion energy        31.7032315022 Hartrees.
 NAtoms=    6 NActive=    6 NUniq=    6 SFac= 1.00D+00 NAtFMM=   60 NAOKFM=F Big=F
 Integral buffers will be    131072 words long.
 Raffenetti 2 integral format.
 Two-electron integral symmetry is turned off.
 Nuclear repulsion after empirical dispersion term =       31.7032260798 Hartrees.
 One-electron integrals computed using PRISM.
   1 Symmetry operations used in ECPInt.
 ECPInt:  NShTT=     300 NPrTT=    1028 LenC2=     301 LenP2D=     969.
 LDataN:  DoStor=T MaxTD1= 4 Len=   56
 NBasis=    48 RedAO= T EigKep=  6.43D-03  NBF=    48
 NBsUse=    48 1.00D-06 EigRej= -1.00D+00 NBFU=    48
 Initial guess from the checkpoint file:  "C:\Users\zz\Desktop\ethene_relax_scan.chk"
 B after Tr=    -0.000001    0.000001    0.000000
         Rot=    1.000000    0.000001   -0.000001    0.000000 Ang=   0.00 deg.
 Initial guess <Sx>= 0.0000 <Sy>= 0.0000 <Sz>= 0.0000 <S**2>= 1.0142 S= 0.6244
 Keep R1 and R2 ints in memory in canonical form, NReq=3131642.
 Requested convergence on RMS density matrix=1.00D-08 within  32 cycles.
 Requested convergence on MAX density matrix=1.00D-06.
 Requested convergence on             energy=1.00D-06.
 Virtual orbitals will be shifted by   0.300 hartree.
 No special actions if energy rises.
 SCF Done:  E(UM062X) =  -78.3742783053     A.U. after   20 cycles
            NFock= 20  Conv=0.74D-08     -V/T= 2.0120
 <Sx>= 0.0000 <Sy>= 0.0000 <Sz>= 0.0000 <S**2>= 1.0114 S= 0.6231
 <L.S>= 0.000000000000E+00
 Annihilation of the first spin contaminant:
 S**2 before annihilation     1.0114,   after     0.1131
 QCSCF skips out because SCF is already converged.
   1 Symmetry operations used in ECPInt.
 ECPInt:  NShTT=     300 NPrTT=    1028 LenC2=     301 LenP2D=     969.
 LDataN:  DoStor=T MaxTD1= 5 Len=  102
 Calling FoFJK, ICntrl=      2127 FMM=F ISym2X=0 I1Cent= 0 IOpClX= 1 NMat=1 NMatS=1 NMatT=0.
 -------------------------------------------------------------------
 Center     Atomic                   Forces (Hartrees/Bohr)
 Number     Number              X              Y              Z
 -------------------------------------------------------------------
      1        6          -0.000000093   -0.000002737    0.000219530
      2        1          -0.001952394   -0.000005447    0.000018428
      3        1           0.001952370    0.000008066    0.000019873
      4        6           0.000002737    0.000000093   -0.000219530
      5        1           0.000005447    0.001952394   -0.000018428
      6        1          -0.000008066   -0.001952370   -0.000019873
 -------------------------------------------------------------------
 Cartesian Forces:  Max     0.001952394 RMS     0.000923316

 GradGradGradGradGradGradGradGradGradGradGradGradGradGradGradGradGradGrad
 Berny optimization.
 FormGI is forming the generalized inverse of G from B-inverse, IUseBI=4.
 Internal  Forces:  Max     0.001717336 RMS     0.000861299
 Search for a local minimum.
 Step number   1 out of a maximum of   26 on scan point     2 out of    46
 All quantities printed in internal units (Hartrees-Bohrs-Radians)
 Mixed Optimization -- RFO/linear search
 Second derivative matrix not updated -- first step.
 The second derivative matrix:
                          R1        R2        R3        R4        R5
           R1           0.37687
           R2           0.00469   0.37687
           R3           0.01278   0.01278   0.37834
           R4           0.00469   0.00469   0.01278   0.37687
           R5           0.00469   0.00469   0.01278   0.00469   0.37687
           A1           0.01128   0.01128  -0.02858   0.01128   0.01128
           A2          -0.00564  -0.00564   0.01429  -0.00564  -0.00564
           A3          -0.00564  -0.00564   0.01429  -0.00564  -0.00564
           A4          -0.00564  -0.00564   0.01429  -0.00564  -0.00564
           A5          -0.00564  -0.00564   0.01429  -0.00564  -0.00564
           A6           0.01128   0.01128  -0.02858   0.01128   0.01128
           Scan         0.00000   0.00000   0.00000   0.00000   0.00000
           D2           0.00000   0.00000   0.00000   0.00000   0.00000
           D3           0.00000   0.00000   0.00000   0.00000   0.00000
           D4           0.00000   0.00000   0.00000   0.00000   0.00000
           Rcons        0.00000   0.00000   0.00000   0.00000   0.00000
                          A1        A2        A3        A4        A5
           A1           0.15423
           A2           0.00288   0.15856
           A3           0.00288  -0.00144   0.15856
           A4           0.00288  -0.00144  -0.00144   0.15856
           A5           0.00288  -0.00144  -0.00144  -0.00144   0.15856
           A6          -0.00577   0.00288   0.00288   0.00288   0.00288
           Scan         0.00000   0.00000   0.00000   0.00000   0.00000
           D2           0.00000   0.00000   0.00000   0.00000   0.00000
           D3           0.00000   0.00000   0.00000   0.00000   0.00000
           D4           0.00000   0.00000   0.00000   0.00000   0.00000
           Rcons        0.00000   0.00000   0.00000   0.00000   0.00000
                          A6       Scan       D2        D3        D4
           A6           0.15423
           Scan         0.00000   0.02681
           D2           0.00000   0.00000   0.02681
           D3           0.00000   0.00000   0.00000   0.02681
           D4           0.00000   0.00000   0.00000   0.00000   0.02681
           Rcons        0.00000   0.00000   0.00000   0.00000   0.00000
                         Rcons
           Rcons        0.20635
 ITU=  0
     Eigenvalues ---    0.02681   0.12561   0.16000   0.16000   0.16000
     Eigenvalues ---    0.37218   0.37218   0.37218   0.37541   0.41097
     Eigenvalues --- 1000.000001000.000001000.000001000.000001000.00000
     Eigenvalues --- 1000.00000
 RFO step:  Lambda=-1.89853637D-07 EMin= 2.68137411D-02
 Linear search not attempted -- first point.
 Iteration  1 RMS(Cart)=  0.00025490 RMS(Int)=  0.00000000
 Iteration  2 RMS(Cart)=  0.00000000 RMS(Int)=  0.00000000
 Iteration  1 RMS(Cart)=  0.00000071 RMS(Int)=  0.00000175
 Variable       Old X    -DE/DX   Delta X   Delta X   Delta X     New X
                                 (Linear)    (Quad)   (Total)
    R1        2.07072   0.00001   0.00000   0.00005   0.00005   2.07077
    R2        2.07073   0.00001   0.00000   0.00004   0.00004   2.07077
    R3        2.74176  -0.00026   0.00000  -0.00065  -0.00065   2.74110
    R4        2.07072   0.00001   0.00000   0.00005   0.00005   2.07077
    R5        2.07073   0.00001   0.00000   0.00004   0.00004   2.07077
    A1        2.03060   0.00004   0.00000   0.00015   0.00015   2.03076
    A2        2.12629  -0.00002   0.00000  -0.00008  -0.00008   2.12622
    A3        2.12629  -0.00002   0.00000  -0.00008  -0.00008   2.12621
    A4        2.12629  -0.00002   0.00000  -0.00008  -0.00008   2.12622
    A5        2.12629  -0.00002   0.00000  -0.00008  -0.00008   2.12621
    A6        2.03060   0.00004   0.00000   0.00015   0.00015   2.03076
   Scan       1.53590  -0.00172   0.00000   0.00000   0.00000   1.53589
    D2       -1.60569  -0.00172   0.00000   0.00000   0.00000  -1.60570
    D3       -1.60569  -0.00172   0.00000   0.00000   0.00000  -1.60570
    D4        1.53590  -0.00172   0.00000   0.00000   0.00000   1.53590
  Rcons       0.00000   0.00000   0.00000   0.00000   0.00000   0.00000
         Item               Value     Threshold  Converged?
 Maximum Force            0.000258     0.000450     YES
 RMS     Force            0.000072     0.000300     YES
 Maximum Displacement     0.000440     0.001800     YES
 RMS     Displacement     0.000255     0.001200     YES
 Predicted change in Energy=-1.058793D-07
 Optimization completed.
    -- Stationary point found.
                           ----------------------------
                           !   Optimized Parameters   !
                           ! (Angstroms and Degrees)  !
 --------------------------                            --------------------------
 ! Name  Definition              Value          Derivative Info.                !
 --------------------------------------------------------------------------------
 ! R1    R(1,2)                  1.0958         -DE/DX =    0.0                 !
 ! R2    R(1,3)                  1.0958         -DE/DX =    0.0                 !
 ! R3    R(1,4)                  1.4509         -DE/DX =   -0.0003              !
 ! R4    R(4,5)                  1.0958         -DE/DX =    0.0                 !
 ! R5    R(4,6)                  1.0958         -DE/DX =    0.0                 !
 ! A1    A(2,1,3)              116.345          -DE/DX =    0.0                 !
 ! A2    A(2,1,4)              121.8276         -DE/DX =    0.0                 !
 ! A3    A(3,1,4)              121.8274         -DE/DX =    0.0                 !
 ! A4    A(1,4,5)              121.8276         -DE/DX =    0.0                 !
 ! A5    A(1,4,6)              121.8274         -DE/DX =    0.0                 !
 ! A6    A(5,4,6)              116.345          -DE/DX =    0.0                 !
 ! Scan  D(2,1,4,5)             88.0004         -DE/DX =   -0.0017              !
 ! D2    D(2,1,4,6)            -91.9995         -DE/DX =   -0.0017              !
 ! D3    D(3,1,4,5)            -91.9995         -DE/DX =   -0.0017              !
 ! D4    D(3,1,4,6)             88.0006         -DE/DX =   -0.0017              !
 ! Rcons GIC-1                   0.0            -DE/DX =    0.0                 !
 --------------------------------------------------------------------------------
 NOTE: GIC-type coordinates are in arbitrary units.
 Iteration  1 RMS(Cart)=  0.00409449 RMS(Int)=  0.00666632
 Iteration  2 RMS(Cart)=  0.00001160 RMS(Int)=  0.00666630
 Iteration  3 RMS(Cart)=  0.00000000 RMS(Int)=  0.00666630
 Iteration  1 RMS(Cart)=  0.00224261 RMS(Int)=  0.00527403
 Iteration  2 RMS(Cart)=  0.00174773 RMS(Int)=  0.00565856
 Iteration  3 RMS(Cart)=  0.00141582 RMS(Int)=  0.00645360
 Iteration  4 RMS(Cart)=  0.00115219 RMS(Int)=  0.00732166
 Iteration  5 RMS(Cart)=  0.00093818 RMS(Int)=  0.00812860
 Iteration  6 RMS(Cart)=  0.00076398 RMS(Int)=  0.00883386
 Iteration  7 RMS(Cart)=  0.00062213 RMS(Int)=  0.00943289
 Iteration  8 RMS(Cart)=  0.00050662 RMS(Int)=  0.00993409
 Iteration  9 RMS(Cart)=  0.00041255 RMS(Int)=  0.01034981
 Iteration 10 RMS(Cart)=  0.00033596 RMS(Int)=  0.01069278
 Iteration 11 RMS(Cart)=  0.00027358 RMS(Int)=  0.01097473
 Iteration 12 RMS(Cart)=  0.00022278 RMS(Int)=  0.01120596
 Iteration 13 RMS(Cart)=  0.00018142 RMS(Int)=  0.01139527
 Iteration 14 RMS(Cart)=  0.00014774 RMS(Int)=  0.01155007
 Iteration 15 RMS(Cart)=  0.00012031 RMS(Int)=  0.01167653
 Iteration 16 RMS(Cart)=  0.00009797 RMS(Int)=  0.01177978
 Iteration 17 RMS(Cart)=  0.00007978 RMS(Int)=  0.01186402
 Iteration 18 RMS(Cart)=  0.00006497 RMS(Int)=  0.01193274
 Iteration 19 RMS(Cart)=  0.00005291 RMS(Int)=  0.01198876
 Iteration 20 RMS(Cart)=  0.00004308 RMS(Int)=  0.01203443
 Iteration 21 RMS(Cart)=  0.00003508 RMS(Int)=  0.01207166
 Iteration 22 RMS(Cart)=  0.00002857 RMS(Int)=  0.01210199
 Iteration 23 RMS(Cart)=  0.00002327 RMS(Int)=  0.01212670
 Iteration 24 RMS(Cart)=  0.00001895 RMS(Int)=  0.01214683
 Iteration 25 RMS(Cart)=  0.00001543 RMS(Int)=  0.01216323
 Iteration 26 RMS(Cart)=  0.00001256 RMS(Int)=  0.01217659
 Iteration 27 RMS(Cart)=  0.00001023 RMS(Int)=  0.01218747
 Iteration 28 RMS(Cart)=  0.00000833 RMS(Int)=  0.01219634
 Iteration 29 RMS(Cart)=  0.00000678 RMS(Int)=  0.01220355
 Iteration 30 RMS(Cart)=  0.00000552 RMS(Int)=  0.01220943
 Iteration 31 RMS(Cart)=  0.00000450 RMS(Int)=  0.01221422
 Iteration 32 RMS(Cart)=  0.00000366 RMS(Int)=  0.01221812
 Iteration 33 RMS(Cart)=  0.00000298 RMS(Int)=  0.01222130
 Iteration 34 RMS(Cart)=  0.00000243 RMS(Int)=  0.01222388
 Iteration 35 RMS(Cart)=  0.00000198 RMS(Int)=  0.01222599
 Iteration 36 RMS(Cart)=  0.00000161 RMS(Int)=  0.01222770
 Iteration 37 RMS(Cart)=  0.00000131 RMS(Int)=  0.01222910
 Iteration 38 RMS(Cart)=  0.00000107 RMS(Int)=  0.01223024
 Iteration 39 RMS(Cart)=  0.00000087 RMS(Int)=  0.01223116
 GradGradGradGradGradGradGradGradGradGradGradGradGradGradGradGradGradGrad

                          Input orientation:                          
 ---------------------------------------------------------------------
 Center     Atomic      Atomic             Coordinates (Angstroms)
 Number     Number       Type             X           Y           Z
 ---------------------------------------------------------------------
      1          6           0       -0.000003   -0.000002   -0.725265
      2          1           0       -0.032496    0.930517   -1.303087
      3          1           0        0.032483   -0.930532   -1.303077
      4          6           0        0.000002    0.000003    0.725265
      5          1           0       -0.930517    0.032496    1.303087
      6          1           0        0.930532   -0.032483    1.303077
 ---------------------------------------------------------------------
                    Distance matrix (angstroms):
                    1          2          3          4          5
     1  C    0.000000
     2  H    1.095809   0.000000
     3  H    1.095814   1.862183   0.000000
     4  C    1.450530   2.231843   2.231843   0.000000
     5  H    2.231843   2.899141   2.940558   1.095809   0.000000
     6  H    2.231843   2.940558   2.899142   1.095814   1.862183
                    6
     6  H    0.000000
 Symmetry turned off by external request.
 Stoichiometry    C2H4
 Framework group  C2[X(C2H4)]
 Deg. of freedom     7
 Full point group                 C2      NOp   2
 Rotational constants (GHZ):         144.6063865          23.9572665          23.6836042
 Standard basis: def2SVP (5D, 7F)
    48 basis functions,    78 primitive gaussians,    50 cartesian basis functions
     8 alpha electrons        8 beta electrons
       nuclear repulsion energy        31.7069961980 Hartrees.
 NAtoms=    6 NActive=    6 NUniq=    6 SFac= 1.00D+00 NAtFMM=   60 NAOKFM=F Big=F
 Integral buffers will be    131072 words long.
 Raffenetti 2 integral format.
 Two-electron integral symmetry is turned off.
 Nuclear repulsion after empirical dispersion term =       31.7069907767 Hartrees.
 One-electron integrals computed using PRISM.
   1 Symmetry operations used in ECPInt.
 ECPInt:  NShTT=     300 NPrTT=    1028 LenC2=     301 LenP2D=     969.
 LDataN:  DoStor=T MaxTD1= 4 Len=   56
 NBasis=    48 RedAO= T EigKep=  6.43D-03  NBF=    48
 NBsUse=    48 1.00D-06 EigRej= -1.00D+00 NBFU=    48
 Initial guess from the checkpoint file:  "C:\Users\zz\Desktop\ethene_relax_scan.chk"
 B after Tr=     0.000000    0.000000    0.000000
         Rot=    1.000000    0.000001   -0.000001    0.000000 Ang=   0.00 deg.
 Initial guess <Sx>= 0.0000 <Sy>= 0.0000 <Sz>= 0.0000 <S**2>= 1.0106 S= 0.6228
 Keep R1 and R2 ints in memory in canonical form, NReq=3131642.
 Requested convergence on RMS density matrix=1.00D-08 within  32 cycles.
 Requested convergence on MAX density matrix=1.00D-06.
 Requested convergence on             energy=1.00D-06.
 Virtual orbitals will be shifted by   0.300 hartree.
 No special actions if energy rises.
 SCF Done:  E(UM062X) =  -78.3746382622     A.U. after   20 cycles
            NFock= 20  Conv=0.75D-08     -V/T= 2.0120
 <Sx>= 0.0000 <Sy>= 0.0000 <Sz>= 0.0000 <S**2>= 1.0028 S= 0.6193
 <L.S>= 0.000000000000E+00
 Annihilation of the first spin contaminant:
 S**2 before annihilation     1.0028,   after     0.1101
 QCSCF skips out because SCF is already converged.
   1 Symmetry operations used in ECPInt.
 ECPInt:  NShTT=     300 NPrTT=    1028 LenC2=     301 LenP2D=     969.
 LDataN:  DoStor=T MaxTD1= 5 Len=  102
 Calling FoFJK, ICntrl=      2127 FMM=F ISym2X=0 I1Cent= 0 IOpClX= 1 NMat=1 NMatS=1 NMatT=0.
 -------------------------------------------------------------------
 Center     Atomic                   Forces (Hartrees/Bohr)
 Number     Number              X              Y              Z
 -------------------------------------------------------------------
      1        6          -0.000000130   -0.000003016    0.000676877
      2        1          -0.003900540   -0.000139088    0.000029023
      3        1           0.003900476    0.000141910    0.000030440
      4        6           0.000003016    0.000000130   -0.000676878
      5        1           0.000139088    0.003900540   -0.000029023
      6        1          -0.000141910   -0.003900476   -0.000030440
 -------------------------------------------------------------------
 Cartesian Forces:  Max     0.003900540 RMS     0.001853745

 GradGradGradGradGradGradGradGradGradGradGradGradGradGradGradGradGradGrad
 Berny optimization.
 FormGI is forming the generalized inverse of G from B-inverse, IUseBI=4.
 Internal  Forces:  Max     0.003433730 RMS     0.001726778
 Search for a local minimum.
 Step number   1 out of a maximum of   26 on scan point     3 out of    46
 All quantities printed in internal units (Hartrees-Bohrs-Radians)
 Mixed Optimization -- RFO/linear search
 Second derivative matrix not updated -- first step.
 The second derivative matrix:
                          R1        R2        R3        R4        R5
           R1           0.37687
           R2           0.00469   0.37687
[...]
           D4          60.00337  58.00358  56.00378  54.00399  52.00420
           Rcons       -0.00005  -0.00006  -0.00006  -0.00006  -0.00007
                          21        22        23        24        25
     Eigenvalues --    -0.42942  -0.43325  -0.43693  -0.44047  -0.44386
           R1           1.09684   1.09654   1.09624   1.09596   1.09568
           R2           1.09684   1.09654   1.09624   1.09596   1.09568
           R3           1.34853   1.34691   1.34537   1.34392   1.34254
           R4           1.09684   1.09654   1.09624   1.09596   1.09568
           R5           1.09684   1.09654   1.09624   1.09596   1.09568
           A1         115.77831 115.86068 115.94023 116.01708 116.09132
           A2         122.11021 122.06903 122.02926 121.99085 121.95373
           A3         122.11148 122.07029 122.03050 121.99207 121.95494
           A4         122.11021 122.06903 122.02926 121.99085 121.95373
           A5         122.11148 122.07029 122.03050 121.99207 121.95494
           A6         115.77831 115.86068 115.94023 116.01708 116.09132
           Scan        50.00030  48.00030  46.00030  44.00030  42.00030
           D2        -129.99765-131.99755-133.99744-135.99734-137.99724
           D3        -129.99765-131.99755-133.99744-135.99734-137.99724
           D4          50.00440  48.00461  46.00482  44.00502  42.00523
           Rcons       -0.00007  -0.00008  -0.00008  -0.00008  -0.00009
                          26        27        28        29        30
     Eigenvalues --    -0.44710  -0.45019  -0.45313  -0.45592  -0.45856
           R1           1.09540   1.09514   1.09488   1.09463   1.09439
           R2           1.09540   1.09514   1.09488   1.09463   1.09439
           R3           1.34124   1.34002   1.33887   1.33779   1.33678
           R4           1.09540   1.09514   1.09488   1.09463   1.09439
           R5           1.09540   1.09514   1.09488   1.09463   1.09439
           A1         116.16295 116.23182 116.29768 116.36034 116.41973
           A2         121.91793 121.88351 121.85059 121.81928 121.78960
           A3         121.91912 121.88467 121.85173 121.82038 121.79067
           A4         121.91793 121.88351 121.85059 121.81928 121.78960
           A5         121.91912 121.88467 121.85173 121.82038 121.79067
           A6         116.16295 116.23182 116.29768 116.36034 116.41973
           Scan        40.00030  38.00030  36.00030  34.00030  32.00030
           D2        -139.99713-141.99703-143.99693-145.99682-147.99672
           D3        -139.99713-141.99703-143.99693-145.99682-147.99672
           D4          40.00543  38.00564  36.00585  34.00605  32.00626
           Rcons       -0.00009  -0.00009  -0.00010  -0.00010  -0.00010
                          31        32        33        34        35
     Eigenvalues --    -0.46104  -0.46337  -0.46554  -0.46755  -0.46941
           R1           1.09417   1.09396   1.09376   1.09358   1.09341
           R2           1.09417   1.09396   1.09376   1.09358   1.09341
           R3           1.33583   1.33496   1.33415   1.33340   1.33272
           R4           1.09417   1.09396   1.09376   1.09358   1.09341
           R5           1.09417   1.09396   1.09376   1.09358   1.09341
           A1         116.47582 116.52848 116.57755 116.62281 116.66414
           A2         121.76158 121.73527 121.71076 121.68816 121.66753
           A3         121.76260 121.73625 121.71169 121.68903 121.66833
           A4         121.76158 121.73527 121.71076 121.68816 121.66753
           A5         121.76260 121.73625 121.71169 121.68903 121.66833
           A6         116.47582 116.52848 116.57755 116.62281 116.66414
           Scan        30.00030  28.00030  26.00030  24.00030  22.00030
           D2        -149.99662-151.99652-153.99641-155.99631-157.99621
           D3        -149.99662-151.99652-153.99641-155.99631-157.99621
           D4          30.00647  28.00667  26.00688  24.00708  22.00729
           Rcons       -0.00011  -0.00011  -0.00011  -0.00012  -0.00012
                          36        37        38        39        40
     Eigenvalues --    -0.47111  -0.47264  -0.47402  -0.47523  -0.47629
           R1           1.09325   1.09311   1.09297   1.09285   1.09275
           R2           1.09325   1.09311   1.09297   1.09285   1.09275
           R3           1.33210   1.33154   1.33104   1.33060   1.33022
           R4           1.09325   1.09311   1.09297   1.09285   1.09275
           R5           1.09325   1.09311   1.09297   1.09285   1.09275
           A1         116.70147 116.73484 116.76435 116.79011 116.81234
           A2         121.64890 121.63225 121.61753 121.60468 121.59361
           A3         121.64963 121.63291 121.61812 121.60520 121.59405
           A4         121.64890 121.63225 121.61753 121.60468 121.59361
           A5         121.64963 121.63291 121.61812 121.60520 121.59405
           A6         116.70147 116.73484 116.76435 116.79011 116.81234
           Scan        20.00030  18.00030  16.00030  14.00030  12.00030
           D2        -159.99610-161.99600-163.99590-165.99579-167.99569
           D3        -159.99610-161.99600-163.99590-165.99579-167.99569
           D4          20.00750  18.00770  16.00791  14.00812  12.00832
           Rcons       -0.00013  -0.00013  -0.00013  -0.00014  -0.00014
                          41        42        43        44        45
     Eigenvalues --    -0.47718  -0.47791  -0.47848  -0.47889  -0.47913
           R1           1.09273   1.09267   1.09259   1.09254   1.09250
           R2           1.09274   1.09267   1.09260   1.09254   1.09250
           R3           1.33020   1.32990   1.32963   1.32943   1.32928
           R4           1.09273   1.09267   1.09259   1.09254   1.09250
           R5           1.09274   1.09267   1.09260   1.09254   1.09250
           A1         116.81947 116.83135 116.84607 116.85730 116.86526
           A2         121.59018 121.58433 121.57703 121.57146 121.56754
           A3         121.59035 121.58432 121.57690 121.57123 121.56720
           A4         121.59018 121.58433 121.57703 121.57146 121.56754
           A5         121.59035 121.58432 121.57690 121.57123 121.56720
           A6         116.81947 116.83135 116.84607 116.85730 116.86526
           Scan        10.00037   8.00037   6.00037   4.00037   2.00037
           D2        -169.99549-171.99537-173.99524-175.99512-177.99499
           D3        -169.99550-171.99537-173.99524-175.99512-177.99499
           D4          10.00864   8.00890   6.00915   4.00940   2.00966
           Rcons       -0.00014  -0.00015  -0.00015  -0.00016  -0.00016
                          46
     Eigenvalues --    -0.47921
           R1           1.09248
           R2           1.09248
           R3           1.32920
           R4           1.09248
           R5           1.09248
           A1         116.87000
           A2         121.56521
           A3         121.56478
           A4         121.56521
           A5         121.56479
           A6         116.87000
           Scan         0.00037
           D2        -179.99486
           D3        -179.99486
           D4           0.00991
           Rcons       -0.00017
 GradGradGradGradGradGradGradGradGradGradGradGradGradGradGradGradGradGrad

                          Input orientation:                          
 ---------------------------------------------------------------------
 Center     Atomic      Atomic             Coordinates (Angstroms)
 Number     Number       Type             X           Y           Z
 ---------------------------------------------------------------------
      1          6           0       -0.000070   -0.000067   -0.664598
      2          1           0       -0.658332    0.658080   -1.236477
      3          1           0        0.658023   -0.658392   -1.236472
      4          6           0        0.000067    0.000070    0.664598
      5          1           0       -0.658080    0.658332    1.236477
      6          1           0        0.658392   -0.658023    1.236472
 ---------------------------------------------------------------------
                    Distance matrix (angstroms):
                    1          2          3          4          5
     1  C    0.000000
     2  H    1.092479   0.000000
     3  H    1.092482   1.861690   0.000000
     4  C    1.329197   2.116732   2.116730   0.000000
     5  H    2.116732   2.472954   3.095378   1.092479   0.000000
     6  H    2.116730   3.095378   2.472943   1.092482   1.861690
                    6
     6  H    0.000000
 Symmetry turned off by external request.
 Stoichiometry    C2H4
 Framework group  C2[X(C2H4)]
 Deg. of freedom     7
 Full point group                 C2      NOp   2
 Rotational constants (GHZ):         144.6830037          30.1468431          24.9484621

 **********************************************************************

            Population analysis using the SCF Density.

 **********************************************************************

 Alpha  occ. eigenvalues --  -10.55346 -10.55247  -0.84533  -0.64931  -0.53641
 Alpha  occ. eigenvalues --   -0.48148  -0.41258  -0.33193
 Alpha virt. eigenvalues --    0.05138   0.12630   0.14679   0.16072   0.22802
 Alpha virt. eigenvalues --    0.37084   0.44137   0.48143   0.48643   0.54347
 Alpha virt. eigenvalues --    0.60013   0.63613   0.71098   0.72517   0.72971
 Alpha virt. eigenvalues --    0.75605   0.87792   1.09094   1.23593   1.29865
 Alpha virt. eigenvalues --    1.33244   1.62268   1.67400   1.68742   1.74696
 Alpha virt. eigenvalues --    1.79298   1.81315   1.85673   1.94955   2.09622
 Alpha virt. eigenvalues --    2.18699   2.25851   2.39596   2.41159   2.50104
 Alpha virt. eigenvalues --    2.70348   2.80576   2.82956   3.07332   3.33810
  Beta  occ. eigenvalues --  -10.55346 -10.55247  -0.84533  -0.64931  -0.53641
  Beta  occ. eigenvalues --   -0.48148  -0.41258  -0.33193
  Beta virt. eigenvalues --    0.05138   0.12630   0.14679   0.16072   0.22802
  Beta virt. eigenvalues --    0.37084   0.44137   0.48143   0.48643   0.54347
  Beta virt. eigenvalues --    0.60013   0.63613   0.71098   0.72517   0.72971
  Beta virt. eigenvalues --    0.75605   0.87792   1.09094   1.23593   1.29865
  Beta virt. eigenvalues --    1.33244   1.62268   1.67400   1.68742   1.74696
  Beta virt. eigenvalues --    1.79298   1.81315   1.85673   1.94955   2.09622
  Beta virt. eigenvalues --    2.18699   2.25851   2.39596   2.41159   2.50104
  Beta virt. eigenvalues --    2.70348   2.80576   2.82956   3.07332   3.33810
          Condensed to atoms (all electrons):
               1          2          3          4          5          6
     1  C    4.654166   0.397733   0.397732   0.713466  -0.024465  -0.024465
     2  H    0.397733   0.622564  -0.044717  -0.024465  -0.016155   0.007958
     3  H    0.397732  -0.044717   0.622564  -0.024465   0.007958  -0.016156
     4  C    0.713466  -0.024465  -0.024465   4.654166   0.397733   0.397732
     5  H   -0.024465  -0.016155   0.007958   0.397733   0.622564  -0.044717
     6  H   -0.024465   0.007958  -0.016156   0.397732  -0.044717   0.622564
          Atomic-Atomic Spin Densities.
               1          2          3          4          5          6
     1  C    0.000000   0.000000   0.000000   0.000000   0.000000   0.000000
     2  H    0.000000   0.000000   0.000000   0.000000   0.000000   0.000000
     3  H    0.000000   0.000000   0.000000   0.000000   0.000000   0.000000
     4  C    0.000000   0.000000   0.000000   0.000000   0.000000   0.000000
     5  H    0.000000   0.000000   0.000000   0.000000   0.000000   0.000000
     6  H    0.000000   0.000000   0.000000   0.000000   0.000000   0.000000
 Mulliken charges and spin densities:
               1          2
     1  C   -0.114167   0.000000
     2  H    0.057083   0.000000
     3  H    0.057084   0.000000
     4  C   -0.114167   0.000000
     5  H    0.057083   0.000000
     6  H    0.057084   0.000000
 Sum of Mulliken charges =   0.00000   0.00000
 Mulliken charges and spin densities with hydrogens summed into heavy atoms:
               1          2
     1  C    0.000000   0.000000
     4  C    0.000000   0.000000
 Electronic spatial extent (au):  <R**2>=             82.6753
 Charge=              0.0000 electrons
 Dipole moment (field-independent basis, Debye):
    X=              0.0000    Y=              0.0000    Z=              0.0000  Tot=              0.0000
 Quadrupole moment (field-independent basis, Debye-Ang):
   XX=            -13.7599   YY=            -13.7599   ZZ=            -12.2017
   XY=             -1.5208   XZ=              0.0004   YZ=              0.0004
 Traceless Quadrupole moment (field-independent basis, Debye-Ang):
   XX=             -0.5194   YY=             -0.5194   ZZ=              1.0388
   XY=             -1.5208   XZ=              0.0004   YZ=              0.0004
 Octapole moment (field-independent basis, Debye-Ang**2):
  XXX=              0.0000  YYY=              0.0000  ZZZ=              0.0000  XYY=              0.0000
  XXY=              0.0000  XXZ=              0.0002  XZZ=              0.0000  YZZ=              0.0000
  YYZ=             -0.0002  XYZ=              0.0000
 Hexadecapole moment (field-independent basis, Debye-Ang**3):
 XXXX=            -22.6245 YYYY=            -22.6245 ZZZZ=            -67.6408 XXXY=              2.4665
 XXXZ=             -0.0024 YYYX=              2.4665 YYYZ=             -0.0024 ZZZX=             -0.0025
 ZZZY=             -0.0025 XXYY=             -6.8925 XXZZ=            -14.0697 YYZZ=            -14.0697
 XXYZ=             -0.0013 YYXZ=             -0.0013 ZZXY=             -0.8245
 N-N= 3.329571231596D+01 E-N=-2.475180633404D+02  KE= 7.751031607602D+01
                          Isotropic Fermi Contact Couplings
        Atom                 a.u.       MegaHertz       Gauss      10(-4) cm-1
     1  C(13)              0.00000       0.00000       0.00000       0.00000
     2  H(1)               0.00000       0.00000       0.00000       0.00000
     3  H(1)               0.00000       0.00000       0.00000       0.00000
     4  C(13)              0.00000       0.00000       0.00000       0.00000
     5  H(1)               0.00000       0.00000       0.00000       0.00000
     6  H(1)               0.00000       0.00000       0.00000       0.00000
 --------------------------------------------------------
       Center         ----  Spin Dipole Couplings  ----
                      3XX-RR        3YY-RR        3ZZ-RR
 --------------------------------------------------------
     1   Atom        0.000000      0.000000      0.000000
     2   Atom        0.000000      0.000000      0.000000
     3   Atom        0.000000      0.000000      0.000000
     4   Atom        0.000000      0.000000      0.000000
     5   Atom        0.000000      0.000000      0.000000
     6   Atom        0.000000      0.000000      0.000000
 --------------------------------------------------------
                        XY            XZ            YZ
 --------------------------------------------------------
     1   Atom        0.000000      0.000000      0.000000
     2   Atom        0.000000      0.000000      0.000000
     3   Atom        0.000000      0.000000      0.000000
     4   Atom        0.000000      0.000000      0.000000
     5   Atom        0.000000      0.000000      0.000000
     6   Atom        0.000000      0.000000      0.000000
 --------------------------------------------------------


 ---------------------------------------------------------------------------------
              Anisotropic Spin Dipole Couplings in Principal Axis System
 ---------------------------------------------------------------------------------

       Atom             a.u.   MegaHertz   Gauss  10(-4) cm-1        Axes

              Baa     0.0000     0.000     0.000     0.000  1.0000  0.0000  0.0000
     1 C(13)  Bbb     0.0000     0.000     0.000     0.000  0.0000  1.0000  0.0000
              Bcc     0.0000     0.000     0.000     0.000  0.0000  0.0000  1.0000
 
              Baa     0.0000     0.000     0.000     0.000  1.0000  0.0000  0.0000
     2 H(1)   Bbb     0.0000     0.000     0.000     0.000  0.0000  1.0000  0.0000
              Bcc     0.0000     0.000     0.000     0.000  0.0000  0.0000  1.0000
 
              Baa     0.0000     0.000     0.000     0.000  1.0000  0.0000  0.0000
     3 H(1)   Bbb     0.0000     0.000     0.000     0.000  0.0000  1.0000  0.0000
              Bcc     0.0000     0.000     0.000     0.000  0.0000  0.0000  1.0000
 
              Baa     0.0000     0.000     0.000     0.000  1.0000  0.0000  0.0000
     4 C(13)  Bbb     0.0000     0.000     0.000     0.000  0.0000  1.0000  0.0000
              Bcc     0.0000     0.000     0.000     0.000  0.0000  0.0000  1.0000
 
              Baa     0.0000     0.000     0.000     0.000  1.0000  0.0000  0.0000
     5 H(1)   Bbb     0.0000     0.000     0.000     0.000  0.0000  1.0000  0.0000
              Bcc     0.0000     0.000     0.000     0.000  0.0000  0.0000  1.0000
 
              Baa     0.0000     0.000     0.000     0.000  1.0000  0.0000  0.0000
     6 H(1)   Bbb     0.0000     0.000     0.000     0.000  0.0000  1.0000  0.0000
              Bcc     0.0000     0.000     0.000     0.000  0.0000  0.0000  1.0000
 

 ---------------------------------------------------------------------------------

 1|1|UNPC-DESKTOP-T8NFEU5|Scan|UM062X|def2SVP|C2H4|ZZ|21-Mar-2020|0||# 
 Opt=AddGIC UM062X/def2SVP EmpiricalDispersion=GD3 Integral=UltraFineGr
 id NoSymmetry Guess=Read SCF=(XQC,VShift=300)||For Symmetry broken wav
 efunction||0,1|C,-0.0000704215,-0.0000670513,-0.6645983214|H,-0.658331
 6083,0.6580800321,-1.2364769185|H,0.6580226983,-0.6583923118,-1.236471
 6898|C,0.0000670549,0.0000704247,0.6645983214|H,-0.6580800338,0.658331
 6064,1.2364769186|H,0.6583923104,-0.6580227,1.2364716896||Version=EM64
 W-G16RevB.01|HF=-78.374158,-78.3742783,-78.374639,-78.375242,-78.37609
 ,-78.3771872,-78.3785395,-78.3801555,-78.3820478,-78.384236,-78.386752
 7,-78.3896661,-78.3938938,-78.3987918,-78.4035641,-78.4082081,-78.4127
 211,-78.4171009,-78.4213451,-78.4254519,-78.4294193,-78.4332454,-78.43
 69282,-78.4404659,-78.4438569,-78.4470996,-78.4501925,-78.4531345,-78.
 4559243,-78.4585609,-78.4610433,-78.4633703,-78.465541,-78.4675542,-78
 .4694093,-78.4711053,-78.4726417,-78.4740179,-78.4752335,-78.4762879,-
 78.4771807,-78.4779118,-78.4784808,-78.4788876,-78.4791319,-78.4792137
 |S2=1.014224,1.011367,1.002752,0.988243,0.967586,0.940359,0.905915,0.8
 63246,0.810738,0.745569,0.661885,0.542537,0.,0.,0.,0.,0.,0.,0.,0.,0.,0
 .,0.,0.,0.,0.,0.,0.,0.,0.,0.,0.,0.,0.,0.,0.,0.,0.,0.,0.,0.,0.,0.,0.,0.
 ,0.|S2-1=0.,0.,0.,0.,0.,0.,0.,0.,0.,0.,0.,0.,0.,0.,0.,0.,0.,0.,0.,0.,0
 .,0.,0.,0.,0.,0.,0.,0.,0.,0.,0.,0.,0.,0.,0.,0.,0.,0.,0.,0.,0.,0.,0.,0.
 ,0.,0.|S2A=0.11423,0.11314,0.110056,0.105037,0.098253,0.089905,0.08023
 3,0.069497,0.057955,0.045837,0.033277,0.020023,0.,0.,0.,0.,0.,0.,0.,0.
 ,0.,0.,0.,0.,0.,0.,0.,0.,0.,0.,0.,0.,0.,0.,0.,0.,0.,0.,0.,0.,0.,0.,0.,
 0.,0.,0.|RMSD=5.835e-009,7.404e-009,5.548e-009,6.353e-009,6.027e-009,5
 .401e-009,8.867e-009,7.763e-009,6.983e-009,6.721e-009,7.615e-009,7.248
 e-009,5.859e-009,6.632e-009,5.945e-009,5.231e-009,4.626e-009,4.095e-00
 9,9.351e-009,8.329e-009,7.407e-009,6.584e-009,5.843e-009,5.169e-009,4.
 554e-009,4.010e-009,9.479e-009,8.329e-009,7.315e-009,6.404e-009,5.587e
 -009,4.858e-009,4.206e-009,3.618e-009,8.569e-009,7.256e-009,6.061e-009
 ,4.992e-009,4.054e-009,9.322e-009,3.836e-009,3.855e-009,3.776e-009,3.6
 77e-009,3.565e-009,9.942e-009|PG=C02 [X(C2H4)]||@


 The most important thing in communication is to hear what isn't being said.
 -- Peter F. Drucker
 Job cpu time:       0 days  0 hours 59 minutes 34.0 seconds.
 Elapsed time:       0 days  0 hours 56 minutes 43.7 seconds.
 File lengths (MBytes):  RWF=     10 Int=      0 D2E=      0 Chk=      3 Scr=      1
 Normal termination of Gaussian 16 at Sat Mar 21 21:55:22 2020.
