 Default CPUs for threads: 0,1
 Default is to use a total of   2 processors:
                                2 via shared-memory
                                1 via Linda
 Entering Link 1 = C:\G16W\l1.exe PID=     12992.
  
 Copyright (c) 1988-2017, Gaussian, Inc.  All Rights Reserved.
  
 This is part of the Gaussian(R) 16 program.  It is based on
 the Gaussian(R) 09 system (copyright 2009, Gaussian, Inc.),
 the Gaussian(R) 03 system (copyright 2003, Gaussian, Inc.),
 the Gaussian(R) 98 system (copyright 1998, Gaussian, Inc.),
 the Gaussian(R) 94 system (copyright 1995, Gaussian, Inc.),
 the Gaussian 92(TM) system (copyright 1992, Gaussian, Inc.),
 the Gaussian 90(TM) system (copyright 1990, Gaussian, Inc.),
 the Gaussian 88(TM) system (copyright 1988, Gaussian, Inc.),
 the Gaussian 86(TM) system (copyright 1986, Carnegie Mellon
 University), and the Gaussian 82(TM) system (copyright 1983,
 Carnegie Mellon University). Gaussian is a federally registered
 trademark of Gaussian, Inc.
  
 This software contains proprietary and confidential information,
 including trade secrets, belonging to Gaussian, Inc.
  
 This software is provided under written license and may be
 used, copied, transmitted, or stored only in accord with that
 written license.
  
 The following legend is applicable only to US Government
 contracts under FAR:
  
                    RESTRICTED RIGHTS LEGEND
  
 Use, reproduction and disclosure by the US Government is
 subject to restrictions as set forth in subparagraphs (a)
 and (c) of the Commercial Computer Software - Restricted
 Rights clause in FAR 52.227-19.
  
 Gaussian, Inc.
 340 Quinnipiac St., Bldg. 40, Wallingford CT 06492
  
  
 ---------------------------------------------------------------
 Warning -- This program may not be used in any manner that
 competes with the business of Gaussian, Inc. or will provide
 assistance to any competitor of Gaussian, Inc.  The licensee
 of this program is prohibited from giving any competitor of
 Gaussian, Inc. access to this program.  By using this program,
 the user acknowledges that Gaussian, Inc. is engaged in the
 business of creating and licensing software in the field of
 computational chemistry and represents and warrants to the
 licensee that it is not a competitor of Gaussian, Inc. and that
 it will not use this program in any manner prohibited above.
 ---------------------------------------------------------------
  

 Cite this work as:
 Gaussian 16, Revision B.01,
 M. J. Frisch, G. W. Trucks, H. B. Schlegel, G. E. Scuseria, 
 M. A. Robb, J. R. Cheeseman, G. Scalmani, V. Barone, 
 G. A. Petersson, H. Nakatsuji, X. Li, M. Caricato, A. V. Marenich, 
 J. Bloino, B. G. Janesko, R. Gomperts, B. Mennucci, H. P. Hratchian, 
 J. V. Ortiz, A. F. Izmaylov, J. L. Sonnenberg, D. Williams-Young, 
 F. Ding, F. Lipparini, F. Egidi, J. Goings, B. Peng, A. Petrone, 
 T. Henderson, D. Ranasinghe, V. G. Zakrzewski, J. Gao, N. Rega, 
 G. Zheng, W. Liang, M. Hada, M. Ehara, K. Toyota, R. Fukuda, 
 J. Hasegawa, M. Ishida, T. Nakajima, Y. Honda, O. Kitao, H. Nakai, 
 T. Vreven, K. Throssell, J. A. Montgomery, Jr., J. E. Peralta, 
 F. Ogliaro, M. J. Bearpark, J. J. Heyd, E. N. Brothers, K. N. Kudin, 
 V. N. Staroverov, T. A. Keith, R. Kobayashi, J. Normand, 
 K. Raghavachari, A. P. Rendell, J. C. Burant, S. S. Iyengar, 
 J. Tomasi, M. Cossi, J. M. Millam, M. Klene, C. Adamo, R. Cammi, 
 J. W. Ochterski, R. L. Martin, K. Morokuma, O. Farkas, 
 J. B. Foresman, and D. J. Fox, Gaussian, Inc., Wallingford CT, 2016.
 
 ******************************************
 Gaussian 16:  EM64W-G16RevB.01 16-Dec-2017
                18-Mar-2020 
 ******************************************
 %oldchk=C:\Users\zz\Desktop\ethane_initial_guess.chk
 %chk=C:\Users\zz\Desktop\ethane_relax_scan.chk
 SetSPE:  set environment variable "MP_BIND" = "yes"
 SetSPE:  set environment variable "MP_BLIST" = "0,1"
 Copying data from "C:\Users\zz\Desktop\ethane_initial_guess.chk" to current chk file "C:\Users\zz\Desktop\ethane_relax_scan.chk"
 IOpt=  2 FromEx=T IUOpen= 4 IOptOp= 5 NList=   0 IFRang= 0 IUIn= 4 IUOut= 2.
 Default route: G09Defaults
 ----------------------------------------------------------------------
 # Opt=ModRedundant UM062X/def2SVP EmpiricalDispersion=GD3 Integral=Ult
 raFineGrid NoSymmetry Guess=Read
 ----------------------------------------------------------------------
 1/14=-1,18=120,19=15,26=4,38=1,158=3,167=1/1,3;
 2/9=110,12=2,15=1,17=6,18=5,40=1/2;
 3/5=43,7=101,11=2,25=1,27=10,30=1,71=1,74=-55,75=-5,116=2,124=31,158=3/1,2,3;
 4/5=1,60=-1/1;
 5/5=2,38=6,87=10/2;
 6/7=2,8=2,9=2,10=2,28=1,87=10/1;
 7/30=1,87=10/1,2,3,16;
 1/14=-1,18=20,19=15,26=4,158=3,167=1/3(2);
 2/9=110,15=1/2;
 99//99;
 2/9=110,15=1/2;
 3/5=43,7=101,11=2,25=1,27=10,30=1,71=1,74=-55,75=-5,116=2,124=31,158=3/1,2,3;
 4/5=5,16=3,60=-1,69=1/1;
 5/5=2,38=5,87=10/2;
 7/30=1,87=10/1,2,3,16;
 1/14=-1,18=20,19=15,26=4,158=3,167=1/3(-5);
 2/9=110,15=1/2;
 6/7=2,8=2,9=2,10=2,19=2,28=1,87=10/1;
 99/9=1/99;
 Using 2006 physical constants.
 --------------------------------
 For Symmetry broken wavefunction
 --------------------------------
 Symbolic Z-matrix:
 Charge =  0 Multiplicity = 1
 C                     0.        0.        5.23 
 H                     0.        1.00881   5.58667 
 H                    -0.87365  -0.5044    5.58667 
 H                     0.87365  -0.5044    5.58667 
 C                     0.        0.       -0.77 
 H                     0.87365   0.5044   -1.12667 
 H                     0.       -1.00881  -1.12667 
 H                    -0.87365   0.5044   -1.12667 
 
 Add virtual bond connecting atoms C5         and C1         Dist= 1.13D+01.
 The following ModRedundant input section has been read:
 B       1       5 S  50 -0.100                                                
 

 GradGradGradGradGradGradGradGradGradGradGradGradGradGradGradGradGradGrad
 Berny optimization.
 Initialization pass.
                           ----------------------------
                           !    Initial Parameters    !
                           ! (Angstroms and Degrees)  !
 --------------------------                            --------------------------
 ! Name  Definition              Value          Derivative Info.                !
 --------------------------------------------------------------------------------
 ! R1    R(1,2)                  1.07           estimate D2E/DX2                !
 ! R2    R(1,3)                  1.07           estimate D2E/DX2                !
 ! R3    R(1,4)                  1.07           estimate D2E/DX2                !
 ! R4    R(1,5)                  6.0            Scan                            !
 ! R5    R(5,6)                  1.07           estimate D2E/DX2                !
 ! R6    R(5,7)                  1.07           estimate D2E/DX2                !
 ! R7    R(5,8)                  1.07           estimate D2E/DX2                !
 ! A1    A(2,1,3)              109.4712         estimate D2E/DX2                !
 ! A2    A(2,1,4)              109.4712         estimate D2E/DX2                !
 ! A3    A(2,1,5)              109.4712         estimate D2E/DX2                !
 ! A4    A(3,1,4)              109.4712         estimate D2E/DX2                !
 ! A5    A(3,1,5)              109.4712         estimate D2E/DX2                !
 ! A6    A(4,1,5)              109.4712         estimate D2E/DX2                !
 ! A7    A(1,5,6)              109.4712         estimate D2E/DX2                !
 ! A8    A(1,5,7)              109.4712         estimate D2E/DX2                !
 ! A9    A(1,5,8)              109.4712         estimate D2E/DX2                !
 ! A10   A(6,5,7)              109.4712         estimate D2E/DX2                !
 ! A11   A(6,5,8)              109.4712         estimate D2E/DX2                !
 ! A12   A(7,5,8)              109.4712         estimate D2E/DX2                !
 ! D1    D(2,1,5,6)             60.0            estimate D2E/DX2                !
 ! D2    D(2,1,5,7)            180.0            estimate D2E/DX2                !
 ! D3    D(2,1,5,8)            -60.0            estimate D2E/DX2                !
 ! D4    D(3,1,5,6)            180.0            estimate D2E/DX2                !
 ! D5    D(3,1,5,7)            -60.0            estimate D2E/DX2                !
 ! D6    D(3,1,5,8)             60.0            estimate D2E/DX2                !
 ! D7    D(4,1,5,6)            -60.0            estimate D2E/DX2                !
 ! D8    D(4,1,5,7)             60.0            estimate D2E/DX2                !
 ! D9    D(4,1,5,8)            180.0            estimate D2E/DX2                !
 --------------------------------------------------------------------------------
 Trust Radius=3.00D-01 FncErr=1.00D-07 GrdErr=1.00D-06 EigMax=2.50D+02 EigMin=1.00D-04
 Number of optimizations in scan=  51
 Number of steps in this run=     38 maximum allowed number of steps=    100.
 GradGradGradGradGradGradGradGradGradGradGradGradGradGradGradGradGradGrad

                          Input orientation:                          
 ---------------------------------------------------------------------
 Center     Atomic      Atomic             Coordinates (Angstroms)
 Number     Number       Type             X           Y           Z
 ---------------------------------------------------------------------
      1          6           0        0.000000    0.000000    5.230000
      2          1           0        0.000000    1.008806    5.586666
      3          1           0       -0.873651   -0.504403    5.586666
      4          1           0        0.873651   -0.504403    5.586666
      5          6           0        0.000000    0.000000   -0.770000
      6          1           0        0.873651    0.504403   -1.126666
      7          1           0        0.000000   -1.008806   -1.126666
      8          1           0       -0.873651    0.504403   -1.126666
 ---------------------------------------------------------------------
                    Distance matrix (angstroms):
                    1          2          3          4          5
     1  C    0.000000
     2  H    1.070000   0.000000
     3  H    1.070000   1.747303   0.000000
     4  H    1.070000   1.747303   1.747303   0.000000
     5  C    6.000000   6.436218   6.436218   6.436218   0.000000
     6  H    6.436218   6.788706   7.009964   6.788706   1.070000
     7  H    6.436218   7.009964   6.788706   6.788706   1.070000
     8  H    6.436218   6.788706   6.788706   7.009964   1.070000
                    6          7          8
     6  H    0.000000
     7  H    1.747303   0.000000
     8  H    1.747303   1.747303   0.000000
 Symmetry turned off by external request.
 Stoichiometry    C2H6
 Framework group  D3D[C3(C.C),3SGD(H2)]
 Deg. of freedom     3
 Full point group                 D3D     NOp  12
 Rotational constants (GHZ):          82.1231618           1.7596198           1.7596198
 Standard basis: def2SVP (5D, 7F)
    58 basis functions,    92 primitive gaussians,    60 cartesian basis functions
     9 alpha electrons        9 beta electrons
       nuclear repulsion energy        26.4503163623 Hartrees.
 NAtoms=    8 NActive=    8 NUniq=    8 SFac= 1.00D+00 NAtFMM=   60 NAOKFM=F Big=F
 Integral buffers will be    131072 words long.
 Raffenetti 2 integral format.
 Two-electron integral symmetry is turned off.
 Nuclear repulsion after empirical dispersion term =       26.4502839237 Hartrees.
 One-electron integrals computed using PRISM.
   1 Symmetry operations used in ECPInt.
 ECPInt:  NShTT=     465 NPrTT=    1529 LenC2=     434 LenP2D=    1125.
 LDataN:  DoStor=T MaxTD1= 4 Len=   56
 NBasis=    58 RedAO= T EigKep=  1.72D-02  NBF=    58
 NBsUse=    58 1.00D-06 EigRej= -1.00D+00 NBFU=    58
 Initial guess from the checkpoint file:  "C:\Users\zz\Desktop\ethane_relax_scan.chk"
 B after Tr=     0.000000    0.000000    0.000000
         Rot=    1.000000    0.000000    0.000000    0.000000 Ang=   0.00 deg.
 Initial guess <Sx>= 0.0000 <Sy>= 0.0000 <Sz>= 0.0000 <S**2>= 1.0070 S= 0.6212
 Keep R1 and R2 ints in memory in canonical form, NReq=4701602.
 Requested convergence on RMS density matrix=1.00D-08 within 128 cycles.
 Requested convergence on MAX density matrix=1.00D-06.
 Requested convergence on             energy=1.00D-06.
 No special actions if energy rises.
 SCF Done:  E(UM062X) =  -79.5287761608     A.U. after    1 cycles
            NFock=  1  Conv=0.58D-09     -V/T= 2.0102
 <Sx>= 0.0000 <Sy>= 0.0000 <Sz>= 0.0000 <S**2>= 1.0070 S= 0.6212
 <L.S>= 0.000000000000E+00
 Annihilation of the first spin contaminant:
 S**2 before annihilation     1.0070,   after     0.0565

 **********************************************************************

            Population analysis using the SCF Density.

 **********************************************************************

 Alpha  occ. eigenvalues --  -10.55939 -10.54954  -0.77317  -0.73291  -0.47281
 Alpha  occ. eigenvalues --   -0.47281  -0.45731  -0.45731  -0.31607
 Alpha virt. eigenvalues --   -0.03287   0.12895   0.13163   0.18948   0.18948
 Alpha virt. eigenvalues --    0.19687   0.19687   0.46600   0.46600   0.47270
 Alpha virt. eigenvalues --    0.47270   0.51952   0.53612   0.63102   0.63938
 Alpha virt. eigenvalues --    0.73335   0.74498   0.74498   0.75425   0.76669
 Alpha virt. eigenvalues --    0.76669   1.20726   1.20726   1.24117   1.24117
 Alpha virt. eigenvalues --    1.58797   1.59218   1.60477   1.64226   1.72714
 Alpha virt. eigenvalues --    1.72714   1.74081   1.74081   2.00492   2.00492
 Alpha virt. eigenvalues --    2.04184   2.04184   2.19678   2.25095   2.46294
 Alpha virt. eigenvalues --    2.46294   2.50417   2.50417   2.74038   2.78387
 Alpha virt. eigenvalues --    2.94584   2.94584   2.98588   2.98588
  Beta  occ. eigenvalues --  -10.55939 -10.54954  -0.77317  -0.73291  -0.47281
  Beta  occ. eigenvalues --   -0.47281  -0.45731  -0.45731  -0.31607
  Beta virt. eigenvalues --   -0.03287   0.12895   0.13163   0.18948   0.18948
  Beta virt. eigenvalues --    0.19687   0.19687   0.46600   0.46600   0.47270
  Beta virt. eigenvalues --    0.47270   0.51952   0.53612   0.63102   0.63938
  Beta virt. eigenvalues --    0.73335   0.74498   0.74498   0.75425   0.76669
  Beta virt. eigenvalues --    0.76669   1.20726   1.20726   1.24117   1.24117
  Beta virt. eigenvalues --    1.58797   1.59218   1.60477   1.64226   1.72714
  Beta virt. eigenvalues --    1.72714   1.74081   1.74081   2.00492   2.00492
  Beta virt. eigenvalues --    2.04184   2.04184   2.19678   2.25095   2.46294
  Beta virt. eigenvalues --    2.46294   2.50417   2.50417   2.74038   2.78387
  Beta virt. eigenvalues --    2.94584   2.94584   2.98588   2.98588
          Condensed to atoms (all electrons):
               1          2          3          4          5          6
     1  C    4.960797   0.400554   0.400553   0.400553   0.000002   0.000000
     2  H    0.400554   0.599443  -0.027076  -0.027076   0.000000   0.000000
     3  H    0.400553  -0.027076   0.599446  -0.027075   0.000000   0.000000
     4  H    0.400553  -0.027076  -0.027075   0.599446   0.000000   0.000000
     5  C    0.000002   0.000000   0.000000   0.000000   4.960797   0.400553
     6  H    0.000000   0.000000   0.000000   0.000000   0.400553   0.599446
     7  H    0.000000   0.000000   0.000000   0.000000   0.400554  -0.027076
     8  H    0.000000   0.000000   0.000000   0.000000   0.400553  -0.027075
               7          8
     1  C    0.000000   0.000000
     2  H    0.000000   0.000000
     3  H    0.000000   0.000000
     4  H    0.000000   0.000000
     5  C    0.400554   0.400553
     6  H   -0.027076  -0.027075
     7  H    0.599443  -0.027076
     8  H   -0.027076   0.599446
          Atomic-Atomic Spin Densities.
               1          2          3          4          5          6
     1  C    1.127989  -0.009365  -0.009367  -0.009367   0.000000   0.000000
     2  H   -0.009365  -0.035148   0.005610   0.005610   0.000000   0.000000
     3  H   -0.009367   0.005610  -0.035155   0.005610   0.000000   0.000000
     4  H   -0.009367   0.005610   0.005610  -0.035155   0.000000   0.000000
     5  C    0.000000   0.000000   0.000000   0.000000  -1.127989   0.009367
     6  H    0.000000   0.000000   0.000000   0.000000   0.009367   0.035155
     7  H    0.000000   0.000000   0.000000   0.000000   0.009365  -0.005610
     8  H    0.000000   0.000000   0.000000   0.000000   0.009367  -0.005610
               7          8
     1  C    0.000000   0.000000
     2  H    0.000000   0.000000
     3  H    0.000000   0.000000
     4  H    0.000000   0.000000
     5  C    0.009365   0.009367
     6  H   -0.005610  -0.005610
     7  H    0.035148  -0.005610
     8  H   -0.005610   0.035155
 Mulliken charges and spin densities:
               1          2
     1  C   -0.162460   1.099889
     2  H    0.054155  -0.033293
     3  H    0.054153  -0.033302
     4  H    0.054153  -0.033302
     5  C   -0.162460  -1.099889
     6  H    0.054153   0.033302
     7  H    0.054155   0.033293
     8  H    0.054153   0.033302
 Sum of Mulliken charges =   0.00000   0.00000
 Mulliken charges and spin densities with hydrogens summed into heavy atoms:
               1          2
     1  C    0.000000   0.999992
     5  C    0.000000  -0.999992
 Electronic spatial extent (au):  <R**2>=            997.2681
 Charge=              0.0000 electrons
 Dipole moment (field-independent basis, Debye):
    X=              0.0000    Y=              0.0000    Z=              0.0000  Tot=              0.0000
 Quadrupole moment (field-independent basis, Debye-Ang):
   XX=            -14.9356   YY=            -14.9356   ZZ=             -8.7558
   XY=              0.0000   XZ=              0.0000   YZ=              0.0001
 Traceless Quadrupole moment (field-independent basis, Debye-Ang):
   XX=             -2.0599   YY=             -2.0599   ZZ=              4.1198
   XY=              0.0000   XZ=              0.0000   YZ=              0.0001
 Octapole moment (field-independent basis, Debye-Ang**2):
  XXX=              0.0000  YYY=              0.0000  ZZZ=            -58.5766  XYY=              0.0000
  XXY=              0.0000  XXZ=            -33.3063  XZZ=              0.0000  YZZ=              0.0005
  YYZ=            -33.3063  XYZ=              0.0000
 Hexadecapole moment (field-independent basis, Debye-Ang**3):
 XXXX=            -28.2769 YYYY=            -28.2768 ZZZZ=          -1068.5296 XXXY=              0.0000
 XXXZ=              0.0000 YYYX=              0.0000 YYYZ=              3.6879 ZZZX=              0.0000
 ZZZY=              0.0040 XXYY=             -9.4256 XXZZ=           -219.9179 YYZZ=           -219.9175
 XXYZ=             -3.6876 YYXZ=              0.0000 ZZXY=              0.0000
 N-N= 2.645028392372D+01 E-N=-2.360072641585D+02  KE= 7.872598169930D+01
                          Isotropic Fermi Contact Couplings
        Atom                 a.u.       MegaHertz       Gauss      10(-4) cm-1
     1  C(13)              0.52475     294.95845     105.24851      98.38755
     2  H(1)              -0.00662     -14.79234      -5.27827      -4.93419
     3  H(1)              -0.00662     -14.79965      -5.28088      -4.93663
     4  H(1)              -0.00662     -14.79965      -5.28088      -4.93663
     5  C(13)             -0.52475    -294.95845    -105.24851     -98.38755
     6  H(1)               0.00662      14.79965       5.28088       4.93663
     7  H(1)               0.00662      14.79234       5.27827       4.93419
     8  H(1)               0.00662      14.79965       5.28088       4.93663
 --------------------------------------------------------
       Center         ----  Spin Dipole Couplings  ----
                      3XX-RR        3YY-RR        3ZZ-RR
 --------------------------------------------------------
     1   Atom       -0.474592     -0.474608      0.949200
     2   Atom       -0.066483      0.065105      0.001378
     3   Atom        0.032206     -0.033587      0.001381
     4   Atom        0.032206     -0.033587      0.001381
     5   Atom        0.474592      0.474608     -0.949200
     6   Atom       -0.032206      0.033587     -0.001381
     7   Atom        0.066483     -0.065105     -0.001378
     8   Atom       -0.032206      0.033587     -0.001381
 --------------------------------------------------------
                        XY            XZ            YZ
 --------------------------------------------------------
     1   Atom        0.000000      0.000000      0.000033
     2   Atom        0.000000      0.000000      0.034377
     3   Atom        0.056980     -0.029775     -0.017190
     4   Atom       -0.056980      0.029775     -0.017190
     5   Atom        0.000000      0.000000     -0.000033
     6   Atom       -0.056980      0.029775      0.017190
     7   Atom        0.000000      0.000000     -0.034377
     8   Atom        0.056980     -0.029775      0.017190
 --------------------------------------------------------


 ---------------------------------------------------------------------------------
              Anisotropic Spin Dipole Couplings in Principal Axis System
 ---------------------------------------------------------------------------------

       Atom             a.u.   MegaHertz   Gauss  10(-4) cm-1        Axes

              Baa    -0.4746   -63.688   -22.725   -21.244  0.0000  1.0000  0.0000
     1 C(13)  Bbb    -0.4746   -63.686   -22.725   -21.243  1.0000  0.0000  0.0000
              Bcc     0.9492   127.374    45.450    42.487  0.0000  0.0000  1.0000
 
              Baa    -0.0665   -35.472   -12.657   -11.832  1.0000  0.0000  0.0000
     2 H(1)   Bbb    -0.0136    -7.273    -2.595    -2.426  0.0000 -0.4001  0.9165
              Bcc     0.0801    42.745    15.253    14.258  0.0000  0.9165  0.4001
 
              Baa    -0.0665   -35.473   -12.658   -11.833 -0.5000  0.8660  0.0000
     3 H(1)   Bbb    -0.0136    -7.273    -2.595    -2.426  0.3466  0.2001  0.9164
              Bcc     0.0801    42.747    15.253    14.259  0.7937  0.4582 -0.4002
 
              Baa    -0.0665   -35.473   -12.658   -11.833  0.5000  0.8660  0.0000
     4 H(1)   Bbb    -0.0136    -7.273    -2.595    -2.426 -0.3466  0.2001  0.9164
              Bcc     0.0801    42.747    15.253    14.259  0.7937 -0.4582  0.4002
 
              Baa    -0.9492  -127.374   -45.450   -42.487  0.0000  0.0000  1.0000
     5 C(13)  Bbb     0.4746    63.686    22.725    21.243  1.0000  0.0000  0.0000
              Bcc     0.4746    63.688    22.725    21.244  0.0000  1.0000  0.0000
 
              Baa    -0.0801   -42.747   -15.253   -14.259  0.7937  0.4582 -0.4002
     6 H(1)   Bbb     0.0136     7.273     2.595     2.426  0.3466  0.2001  0.9164
              Bcc     0.0665    35.473    12.658    11.833 -0.5000  0.8660  0.0000
 
              Baa    -0.0801   -42.745   -15.253   -14.258  0.0000  0.9165  0.4001
     7 H(1)   Bbb     0.0136     7.273     2.595     2.426  0.0000 -0.4001  0.9165
              Bcc     0.0665    35.472    12.657    11.832  1.0000  0.0000  0.0000
 
              Baa    -0.0801   -42.747   -15.253   -14.259  0.7937 -0.4582  0.4002
     8 H(1)   Bbb     0.0136     7.273     2.595     2.426 -0.3466  0.2001  0.9164
              Bcc     0.0665    35.473    12.658    11.833  0.5000  0.8660  0.0000
 

 ---------------------------------------------------------------------------------

   1 Symmetry operations used in ECPInt.
 ECPInt:  NShTT=     465 NPrTT=    1529 LenC2=     434 LenP2D=    1125.
 LDataN:  DoStor=T MaxTD1= 5 Len=  102
 Calling FoFJK, ICntrl=      2127 FMM=F ISym2X=0 I1Cent= 0 IOpClX= 1 NMat=1 NMatS=1 NMatT=0.
 -------------------------------------------------------------------
 Center     Atomic                   Forces (Hartrees/Bohr)
 Number     Number              X              Y              Z
 -------------------------------------------------------------------
      1        6           0.000000000   -0.000003536    0.021637997
      2        1           0.000000000    0.022678677   -0.007207058
      3        1          -0.019644218   -0.011337562   -0.007209338
      4        1           0.019644218   -0.011337562   -0.007209338
      5        6           0.000000000    0.000003536   -0.021637997
      6        1           0.019644218    0.011337562    0.007209338
      7        1           0.000000000   -0.022678677    0.007207058
      8        1          -0.019644218    0.011337562    0.007209338
 -------------------------------------------------------------------
 Cartesian Forces:  Max     0.022678677 RMS     0.013439021

 GradGradGradGradGradGradGradGradGradGradGradGradGradGradGradGradGradGrad
 Berny optimization.
 FormGI is forming the generalized inverse of G from B-inverse, IUseBI=4.
 Internal  Forces:  Max     0.018980876 RMS     0.012941545
 Search for a local minimum.
 Step number   1 out of a maximum of   38 on scan point     1 out of    51
 All quantities printed in internal units (Hartrees-Bohrs-Radians)
 Mixed Optimization -- RFO/linear search
 Second derivative matrix not updated -- first step.
 ITU=  0
     Eigenvalues ---    0.00230   0.05715   0.05715   0.05715   0.05715
     Eigenvalues ---    0.16000   0.16000   0.16000   0.16000   0.16000
     Eigenvalues ---    0.16000   0.37230   0.37230   0.37230   0.37230
     Eigenvalues ---    0.37230   0.372301000.000001000.000001000.00000
     Eigenvalues --- 1000.000001000.000001000.000001000.000001000.00000
     Eigenvalues --- 1000.000001000.000001000.00000
 RFO step:  Lambda=-1.95920250D-02 EMin= 2.30000000D-03
 Linear search not attempted -- first point.
 Maximum step size (   0.300) exceeded in Quadratic search.
    -- Step size scaled by   0.987
 Iteration  1 RMS(Cart)=  0.07784512 RMS(Int)=  0.00509651
 Iteration  2 RMS(Cart)=  0.00604916 RMS(Int)=  0.00258926
 Iteration  3 RMS(Cart)=  0.00003632 RMS(Int)=  0.00258914
 Iteration  4 RMS(Cart)=  0.00000023 RMS(Int)=  0.00258914
 Iteration  1 RMS(Cart)=  0.00000000 RMS(Int)=  0.00000000
 Variable       Old X    -DE/DX   Delta X   Delta X   Delta X     New X
                                 (Linear)    (Quad)   (Total)
    R1        2.02201   0.01898   0.00000   0.04778   0.04778   2.06979
    R2        2.02201   0.01898   0.00000   0.04779   0.04779   2.06979
    R3        2.02201   0.01898   0.00000   0.04779   0.04779   2.06979
    R4       11.33836   0.00001   0.00000   0.00000   0.00000  11.33836
    R5        2.02201   0.01898   0.00000   0.04779   0.04779   2.06979
    R6        2.02201   0.01898   0.00000   0.04778   0.04778   2.06979
    R7        2.02201   0.01898   0.00000   0.04779   0.04779   2.06979
    A1        1.91063   0.01451   0.00000   0.07973   0.07537   1.98600
    A2        1.91063   0.01451   0.00000   0.07973   0.07537   1.98600
    A3        1.91063  -0.01451   0.00000  -0.07973  -0.08324   1.82740
    A4        1.91063   0.01452   0.00000   0.07977   0.07541   1.98604
    A5        1.91063  -0.01452   0.00000  -0.07974  -0.08325   1.82738
    A6        1.91063  -0.01452   0.00000  -0.07974  -0.08325   1.82738
    A7        1.91063  -0.01452   0.00000  -0.07974  -0.08325   1.82738
    A8        1.91063  -0.01451   0.00000  -0.07973  -0.08324   1.82740
    A9        1.91063  -0.01452   0.00000  -0.07974  -0.08325   1.82738
   A10        1.91063   0.01451   0.00000   0.07973   0.07537   1.98600
   A11        1.91063   0.01452   0.00000   0.07977   0.07541   1.98604
   A12        1.91063   0.01451   0.00000   0.07973   0.07537   1.98600
    D1        1.04720   0.00000   0.00000   0.00001   0.00001   1.04721
    D2        3.14159   0.00000   0.00000   0.00000   0.00000   3.14159
    D3       -1.04720   0.00000   0.00000  -0.00001  -0.00001  -1.04721
    D4        3.14159   0.00000   0.00000   0.00000   0.00000   3.14159
    D5       -1.04720   0.00000   0.00000  -0.00001  -0.00001  -1.04721
    D6        1.04720   0.00000   0.00000  -0.00003  -0.00003   1.04717
    D7       -1.04720   0.00000   0.00000   0.00003   0.00003  -1.04717
    D8        1.04720   0.00000   0.00000   0.00001   0.00001   1.04721
    D9        3.14159   0.00000   0.00000   0.00000   0.00000   3.14159
         Item               Value     Threshold  Converged?
 Maximum Force            0.018981     0.000450     NO 
 RMS     Force            0.013179     0.000300     NO 
 Maximum Displacement     0.148729     0.001800     NO 
 RMS     Displacement     0.081857     0.001200     NO 
 Predicted change in Energy=-1.065193D-02
 GradGradGradGradGradGradGradGradGradGradGradGradGradGradGradGradGradGrad

                          Input orientation:                          
 ---------------------------------------------------------------------
 Center     Atomic      Atomic             Coordinates (Angstroms)
 Number     Number       Type             X           Y           Z
 ---------------------------------------------------------------------
      1          6           0        0.000000   -0.000004    5.230000
      2          1           0        0.000000    1.059421    5.507977
      3          1           0       -0.917500   -0.529707    5.507962
      4          1           0        0.917500   -0.529707    5.507962
      5          6           0        0.000000    0.000004   -0.770000
      6          1           0        0.917500    0.529707   -1.047962
      7          1           0        0.000000   -1.059421   -1.047976
      8          1           0       -0.917500    0.529707   -1.047962
 ---------------------------------------------------------------------
                    Distance matrix (angstroms):
                    1          2          3          4          5
     1  C    0.000000
     2  H    1.095286   0.000000
     3  H    1.095288   1.834975   0.000000
     4  H    1.095288   1.834975   1.835000   0.000000
     5  C    6.000000   6.366738   6.366727   6.366727   0.000000
     6  H    6.366727   6.640989   6.889828   6.640971   1.095288
     7  H    6.366738   6.889848   6.640989   6.640989   1.095286
     8  H    6.366727   6.640989   6.640971   6.889828   1.095288
                    6          7          8
     6  H    0.000000
     7  H    1.834975   0.000000
     8  H    1.835000   1.834975   0.000000
 Symmetry turned off by external request.
 Stoichiometry    C2H6
 Framework group  C2H[SGH(C2H2),X(H4)]
 Deg. of freedom     6
 Full point group                 C2H     NOp   4
 Rotational constants (GHZ):          74.4625381           1.7771986           1.7771978
 Standard basis: def2SVP (5D, 7F)
    58 basis functions,    92 primitive gaussians,    60 cartesian basis functions
     9 alpha electrons        9 beta electrons
       nuclear repulsion energy        25.9991020091 Hartrees.
 NAtoms=    8 NActive=    8 NUniq=    8 SFac= 1.00D+00 NAtFMM=   60 NAOKFM=F Big=F
 Integral buffers will be    131072 words long.
 Raffenetti 2 integral format.
 Two-electron integral symmetry is turned off.
 Nuclear repulsion after empirical dispersion term =       25.9990676345 Hartrees.
 One-electron integrals computed using PRISM.
   1 Symmetry operations used in ECPInt.
 ECPInt:  NShTT=     465 NPrTT=    1529 LenC2=     434 LenP2D=    1119.
 LDataN:  DoStor=T MaxTD1= 4 Len=   56
 NBasis=    58 RedAO= T EigKep=  2.03D-02  NBF=    58
 NBsUse=    58 1.00D-06 EigRej= -1.00D+00 NBFU=    58
 Initial guess from the checkpoint file:  "C:\Users\zz\Desktop\ethane_relax_scan.chk"
 B after Tr=     0.000000    0.000003    0.000000
         Rot=    1.000000    0.000000    0.000000    0.000000 Ang=   0.00 deg.
 Initial guess <Sx>= 0.0000 <Sy>= 0.0000 <Sz>= 0.0000 <S**2>= 1.0075 S= 0.6214
 ExpMin= 1.22D-01 ExpMax= 1.24D+03 ExpMxC= 1.86D+02 IAcc=3 IRadAn=         5 AccDes= 0.00D+00
 Harris functional with IExCor= 1009 and IRadAn=      -1 diagonalized for initial guess.
 HarFok:  IExCor= 1009 AccDes= 0.00D+00 IRadAn=        -1 IDoV= 1 UseB2=F ITyADJ=14
 ICtDFT=  3500011 ScaDFX=  1.000000  1.000000  1.000000  1.000000
 FoFCou: FMM=F IPFlag=           0 FMFlag=      100000 FMFlg1=           0
         NFxFlg=           0 DoJE=T BraDBF=F KetDBF=T FulRan=T
         wScrn=  0.000000 ICntrl=       500 IOpCl=  0 I1Cent=   200000004 NGrid=           0
         NMat0=    1 NMatS0=      1 NMatT0=    0 NMatD0=    1 NMtDS0=    0 NMtDT0=    0
 Symmetry not used in FoFCou.
 Keep R1 and R2 ints in memory in canonical form, NReq=4701602.
 Requested convergence on RMS density matrix=1.00D-08 within 128 cycles.
 Requested convergence on MAX density matrix=1.00D-06.
 Requested convergence on             energy=1.00D-06.
 No special actions if energy rises.
 Integral accuracy reduced to 1.0D-05 until final iterations.
 Initial convergence to 1.0D-05 achieved.  Increase integral accuracy.
 SCF Done:  E(UM062X) =  -79.5419062910     A.U. after   13 cycles
            NFock= 13  Conv=0.49D-08     -V/T= 2.0132
 <Sx>= 0.0000 <Sy>= 0.0000 <Sz>= 0.0000 <S**2>= 1.0082 S= 0.6217
 <L.S>= 0.000000000000E+00
 Annihilation of the first spin contaminant:
 S**2 before annihilation     1.0082,   after     0.0660
   1 Symmetry operations used in ECPInt.
 ECPInt:  NShTT=     465 NPrTT=    1529 LenC2=     434 LenP2D=    1119.
 LDataN:  DoStor=T MaxTD1= 5 Len=  102
 Calling FoFJK, ICntrl=      2127 FMM=F ISym2X=0 I1Cent= 0 IOpClX= 1 NMat=1 NMatS=1 NMatT=0.
 -------------------------------------------------------------------
 Center     Atomic                   Forces (Hartrees/Bohr)
 Number     Number              X              Y              Z
 -------------------------------------------------------------------
      1        6           0.000000000    0.000013731    0.022039140
      2        1           0.000000000    0.000064313   -0.007340305
      3        1          -0.000060928   -0.000039023   -0.007340128
      4        1           0.000060928   -0.000039023   -0.007340128
      5        6           0.000000000   -0.000013731   -0.022039140
      6        1           0.000060928    0.000039023    0.007340128
      7        1           0.000000000   -0.000064313    0.007340305
      8        1          -0.000060928    0.000039023    0.007340128
 -------------------------------------------------------------------
 Cartesian Forces:  Max     0.022039140 RMS     0.007344916

 GradGradGradGradGradGradGradGradGradGradGradGradGradGradGradGradGradGrad
 Berny optimization.
 Using GEDIIS/GDIIS optimizer.
 FormGI is forming the generalized inverse of G from B-inverse, IUseBI=4.
 Internal  Forces:  Max     0.008942092 RMS     0.005377272
 Search for a local minimum.
 Step number   2 out of a maximum of   38 on scan point     1 out of    51
 All quantities printed in internal units (Hartrees-Bohrs-Radians)
 Mixed Optimization -- RFO/linear search
 Update second derivatives using D2CorX and points    1    2
 DE= -1.31D-02 DEPred=-1.07D-02 R= 1.23D+00
 TightC=F SS=  1.41D+00  RLast= 2.99D-01 DXNew= 5.0454D-01 8.9686D-01
 Trust test= 1.23D+00 RLast= 2.99D-01 DXMaxT set to 5.05D-01
 ITU=  1  0
 Use linear search instead of GDIIS.
     Eigenvalues ---    0.00230   0.06584   0.06584   0.06584   0.06584
     Eigenvalues ---    0.08660   0.16000   0.16000   0.16000   0.16000
     Eigenvalues ---    0.16000   0.37230   0.37230   0.37230   0.37230
     Eigenvalues ---    0.37230   0.477771000.000001000.000001000.00000
     Eigenvalues --- 1000.000001000.000001000.000001000.000001000.00000
     Eigenvalues --- 1000.000001000.000001000.00000
 RFO step:  Lambda=-5.04811842D-03 EMin= 2.30000000D-03
 Quartic linear search produced a step of  0.65070.
 Iteration  1 RMS(Cart)=  0.10222627 RMS(Int)=  0.01049293
 Iteration  2 RMS(Cart)=  0.00795901 RMS(Int)=  0.00844074
 Iteration  3 RMS(Cart)=  0.00025092 RMS(Int)=  0.00843970
 Iteration  4 RMS(Cart)=  0.00001043 RMS(Int)=  0.00843970
 Iteration  5 RMS(Cart)=  0.00000043 RMS(Int)=  0.00843970
 Iteration  1 RMS(Cart)=  0.00000000 RMS(Int)=  0.00000000
 Variable       Old X    -DE/DX   Delta X   Delta X   Delta X     New X
                                 (Linear)    (Quad)   (Total)
    R1        2.06979  -0.00180   0.03109  -0.02859   0.00251   2.07230
    R2        2.06979  -0.00179   0.03109  -0.02855   0.00254   2.07233
    R3        2.06979  -0.00179   0.03109  -0.02855   0.00254   2.07233
    R4       11.33836   0.00002   0.00000   0.00000   0.00000  11.33836
    R5        2.06979  -0.00179   0.03109  -0.02855   0.00254   2.07233
    R6        2.06979  -0.00180   0.03109  -0.02859   0.00251   2.07230
    R7        2.06979  -0.00179   0.03109  -0.02855   0.00254   2.07233
    A1        1.98600   0.00720   0.04904   0.04015   0.07279   2.05879
    A2        1.98600   0.00720   0.04904   0.04015   0.07279   2.05879
    A3        1.82740  -0.00894  -0.05416  -0.04982  -0.11193   1.71547
    A4        1.98604   0.00719   0.04907   0.04007   0.07272   2.05876
    A5        1.82738  -0.00894  -0.05417  -0.04987  -0.11199   1.71539
    A6        1.82738  -0.00894  -0.05417  -0.04987  -0.11199   1.71539
    A7        1.82738  -0.00894  -0.05417  -0.04987  -0.11199   1.71539
    A8        1.82740  -0.00894  -0.05416  -0.04982  -0.11193   1.71547
    A9        1.82738  -0.00894  -0.05417  -0.04987  -0.11199   1.71539
   A10        1.98600   0.00720   0.04904   0.04015   0.07279   2.05879
   A11        1.98604   0.00719   0.04907   0.04007   0.07272   2.05876
   A12        1.98600   0.00720   0.04904   0.04015   0.07279   2.05879
    D1        1.04721   0.00000   0.00001  -0.00004  -0.00003   1.04718
    D2        3.14159   0.00000   0.00000   0.00000   0.00000   3.14159
    D3       -1.04721   0.00000  -0.00001   0.00004   0.00003  -1.04718
    D4        3.14159   0.00000   0.00000   0.00000   0.00000   3.14159
    D5       -1.04721   0.00000  -0.00001   0.00004   0.00003  -1.04718
    D6        1.04717   0.00000  -0.00002   0.00008   0.00006   1.04723
    D7       -1.04717   0.00000   0.00002  -0.00008  -0.00006  -1.04723
    D8        1.04721   0.00000   0.00001  -0.00004  -0.00003   1.04718
    D9        3.14159   0.00000   0.00000   0.00000   0.00000  -3.14159
         Item               Value     Threshold  Converged?
 Maximum Force            0.008942     0.000450     NO 
 RMS     Force            0.005476     0.000300     NO 
 Maximum Displacement     0.226659     0.001800     NO 
 RMS     Displacement     0.107298     0.001200     NO 
 Predicted change in Energy=-4.465697D-03
 GradGradGradGradGradGradGradGradGradGradGradGradGradGradGradGradGradGrad

                          Input orientation:                          
 ---------------------------------------------------------------------
 Center     Atomic      Atomic             Coordinates (Angstroms)
 Number     Number       Type             X           Y           Z
 ---------------------------------------------------------------------
      1          6           0        0.000000    0.000020    5.230000
      2          1           0        0.000000    1.085177    5.388087
      3          1           0       -0.939792   -0.542587    5.388020
      4          1           0        0.939792   -0.542587    5.388020
      5          6           0        0.000000   -0.000020   -0.770000
      6          1           0        0.939792    0.542587   -0.928020
      7          1           0        0.000000   -1.085177   -0.928087
      8          1           0       -0.939792    0.542587   -0.928020
 ---------------------------------------------------------------------
                    Distance matrix (angstroms):
                    1          2          3          4          5
     1  C    0.000000
     2  H    1.096612   0.000000
     3  H    1.096632   1.879581   0.000000
     4  H    1.096632   1.879581   1.879585   0.000000
     5  C    6.000000   6.252974   6.252903   6.252903   0.000000
     6  H    6.252903   6.408651   6.678532   6.408584   1.096632
     7  H    6.252974   6.678659   6.408651   6.408651   1.096612
     8  H    6.252903   6.408651   6.408584   6.678532   1.096632
                    6          7          8
     6  H    0.000000
     7  H    1.879581   0.000000
     8  H    1.879585   1.879581   0.000000
 Symmetry turned off by external request.
 Stoichiometry    C2H6
 Framework group  CI[X(C2H6)]
 Deg. of freedom     9
 Full point group                 CI      NOp   2
 Rotational constants (GHZ):          70.9707513           1.8057758           1.8057757
 Standard basis: def2SVP (5D, 7F)
    58 basis functions,    92 primitive gaussians,    60 cartesian basis functions
     9 alpha electrons        9 beta electrons
       nuclear repulsion energy        26.0158991137 Hartrees.
 NAtoms=    8 NActive=    8 NUniq=    8 SFac= 1.00D+00 NAtFMM=   60 NAOKFM=F Big=F
 Integral buffers will be    131072 words long.
 Raffenetti 2 integral format.
 Two-electron integral symmetry is turned off.
 Nuclear repulsion after empirical dispersion term =       26.0158612260 Hartrees.
 One-electron integrals computed using PRISM.
   1 Symmetry operations used in ECPInt.
 ECPInt:  NShTT=     465 NPrTT=    1529 LenC2=     440 LenP2D=    1137.
 LDataN:  DoStor=T MaxTD1= 4 Len=   56
 NBasis=    58 RedAO= T EigKep=  2.21D-02  NBF=    58
 NBsUse=    58 1.00D-06 EigRej= -1.00D+00 NBFU=    58
 Initial guess from the checkpoint file:  "C:\Users\zz\Desktop\ethane_relax_scan.chk"
 B after Tr=     0.000000   -0.000017    0.000000
         Rot=    1.000000    0.000002    0.000000    0.000000 Ang=   0.00 deg.
 Initial guess <Sx>= 0.0000 <Sy>= 0.0000 <Sz>= 0.0000 <S**2>= 1.0086 S= 0.6219
 ExpMin= 1.22D-01 ExpMax= 1.24D+03 ExpMxC= 1.86D+02 IAcc=3 IRadAn=         5 AccDes= 0.00D+00
 Harris functional with IExCor= 1009 and IRadAn=      -1 diagonalized for initial guess.
 HarFok:  IExCor= 1009 AccDes= 0.00D+00 IRadAn=        -1 IDoV= 1 UseB2=F ITyADJ=14
 ICtDFT=  3500011 ScaDFX=  1.000000  1.000000  1.000000  1.000000
 FoFCou: FMM=F IPFlag=           0 FMFlag=      100000 FMFlg1=           0
         NFxFlg=           0 DoJE=T BraDBF=F KetDBF=T FulRan=T
         wScrn=  0.000000 ICntrl=       500 IOpCl=  0 I1Cent=   200000004 NGrid=           0
         NMat0=    1 NMatS0=      1 NMatT0=    0 NMatD0=    1 NMtDS0=    0 NMtDT0=    0
 Symmetry not used in FoFCou.
 Keep R1 and R2 ints in memory in canonical form, NReq=4701602.
 Requested convergence on RMS density matrix=1.00D-08 within 128 cycles.
 Requested convergence on MAX density matrix=1.00D-06.
 Requested convergence on             energy=1.00D-06.
 No special actions if energy rises.
 Integral accuracy reduced to 1.0D-05 until final iterations.
 Initial convergence to 1.0D-05 achieved.  Increase integral accuracy.
 SCF Done:  E(UM062X) =  -79.5477234756     A.U. after   12 cycles
            NFock= 12  Conv=0.30D-08     -V/T= 2.0138
 <Sx>= 0.0000 <Sy>= 0.0000 <Sz>= 0.0000 <S**2>= 1.0096 S= 0.6223
 <L.S>= 0.000000000000E+00
 Annihilation of the first spin contaminant:
 S**2 before annihilation     1.0096,   after     0.0772
   1 Symmetry operations used in ECPInt.
 ECPInt:  NShTT=     465 NPrTT=    1529 LenC2=     440 LenP2D=    1137.
 LDataN:  DoStor=T MaxTD1= 5 Len=  102
 Calling FoFJK, ICntrl=      2127 FMM=F ISym2X=0 I1Cent= 0 IOpClX= 1 NMat=1 NMatS=1 NMatT=0.
 -------------------------------------------------------------------
 Center     Atomic                   Forces (Hartrees/Bohr)
 Number     Number              X              Y              Z
 -------------------------------------------------------------------
      1        6           0.000000000   -0.000018423    0.007979505
      2        1           0.000000000   -0.004691493   -0.002657412
      3        1           0.004071378    0.002354967   -0.002657727
      4        1          -0.004071378    0.002354967   -0.002657727
      5        6           0.000000000    0.000018423   -0.007979505
      6        1          -0.004071378   -0.002354967    0.002657727
      7        1           0.000000000    0.004691493    0.002657412
      8        1           0.004071378   -0.002354967    0.002657727
 -------------------------------------------------------------------
 Cartesian Forces:  Max     0.007979505 RMS     0.003548659

 GradGradGradGradGradGradGradGradGradGradGradGradGradGradGradGradGradGrad
 Berny optimization.
 Using GEDIIS/GDIIS optimizer.
 FormGI is forming the generalized inverse of G from B-inverse, IUseBI=4.
 Internal  Forces:  Max     0.005037202 RMS     0.002875902
 Search for a local minimum.
 Step number   3 out of a maximum of   38 on scan point     1 out of    51
 All quantities printed in internal units (Hartrees-Bohrs-Radians)
 Mixed Optimization -- RFO/linear search
 Update second derivatives using D2CorX and points    2    3
 DE= -5.82D-03 DEPred=-4.47D-03 R= 1.30D+00
 TightC=F SS=  1.41D+00  RLast= 3.27D-01 DXNew= 8.4853D-01 9.8147D-01
 Trust test= 1.30D+00 RLast= 3.27D-01 DXMaxT set to 8.49D-01
 ITU=  1  1  0
 Use linear search instead of GDIIS.
     Eigenvalues ---    0.00230   0.05653   0.07570   0.07570   0.07570
     Eigenvalues ---    0.07570   0.16000   0.16000   0.16000   0.16000
     Eigenvalues ---    0.16000   0.37230   0.37230   0.37230   0.37230
     Eigenvalues ---    0.37230   0.485711000.000001000.000001000.00000
     Eigenvalues --- 1000.000001000.000001000.000001000.000001000.00000
     Eigenvalues --- 1000.000001000.000001000.00000
 RFO step:  Lambda=-6.05566780D-04 EMin= 2.30000000D-03
 Quartic linear search produced a step of  0.57065.
 Iteration  1 RMS(Cart)=  0.07274785 RMS(Int)=  0.00888928
 Iteration  2 RMS(Cart)=  0.00276584 RMS(Int)=  0.00845126
 Iteration  3 RMS(Cart)=  0.00001594 RMS(Int)=  0.00845126
 Iteration  4 RMS(Cart)=  0.00000091 RMS(Int)=  0.00845126
 Iteration  1 RMS(Cart)=  0.00000000 RMS(Int)=  0.00000000
 Variable       Old X    -DE/DX   Delta X   Delta X   Delta X     New X
                                 (Linear)    (Quad)   (Total)
    R1        2.07230  -0.00503   0.00143  -0.01430  -0.01287   2.05943
    R2        2.07233  -0.00504   0.00145  -0.01436  -0.01291   2.05942
    R3        2.07233  -0.00504   0.00145  -0.01436  -0.01291   2.05942
    R4       11.33836   0.00001   0.00000   0.00000   0.00000  11.33836
    R5        2.07233  -0.00504   0.00145  -0.01436  -0.01291   2.05942
    R6        2.07230  -0.00503   0.00143  -0.01430  -0.01287   2.05943
    R7        2.07233  -0.00504   0.00145  -0.01436  -0.01291   2.05942
    A1        2.05879   0.00159   0.04154   0.00362   0.02739   2.08618
    A2        2.05879   0.00159   0.04154   0.00362   0.02739   2.08618
    A3        1.71547  -0.00328  -0.06387  -0.00757  -0.07565   1.63981
    A4        2.05876   0.00159   0.04150   0.00371   0.02744   2.08621
    A5        1.71539  -0.00328  -0.06391  -0.00752  -0.07564   1.63975
    A6        1.71539  -0.00328  -0.06391  -0.00752  -0.07564   1.63975
    A7        1.71539  -0.00328  -0.06391  -0.00752  -0.07564   1.63975
    A8        1.71547  -0.00328  -0.06387  -0.00757  -0.07565   1.63981
    A9        1.71539  -0.00328  -0.06391  -0.00752  -0.07564   1.63975
   A10        2.05879   0.00159   0.04154   0.00362   0.02739   2.08618
   A11        2.05876   0.00159   0.04150   0.00371   0.02744   2.08621
   A12        2.05879   0.00159   0.04154   0.00362   0.02739   2.08618
    D1        1.04718   0.00000  -0.00002   0.00004   0.00002   1.04721
    D2        3.14159   0.00000   0.00000   0.00000   0.00000   3.14159
    D3       -1.04718   0.00000   0.00002  -0.00004  -0.00002  -1.04721
    D4        3.14159   0.00000   0.00000   0.00000   0.00000   3.14159
    D5       -1.04718   0.00000   0.00002  -0.00004  -0.00002  -1.04721
    D6        1.04723   0.00000   0.00003  -0.00008  -0.00005   1.04718
    D7       -1.04723   0.00000  -0.00003   0.00008   0.00005  -1.04718
    D8        1.04718   0.00000  -0.00002   0.00004   0.00002   1.04721
    D9       -3.14159   0.00000   0.00000   0.00000   0.00000  -3.14159
         Item               Value     Threshold  Converged?
 Maximum Force            0.005037     0.000450     NO 
 RMS     Force            0.002929     0.000300     NO 
 Maximum Displacement     0.156718     0.001800     NO 
 RMS     Displacement     0.072566     0.001200     NO 
 Predicted change in Energy=-8.261342D-04
 GradGradGradGradGradGradGradGradGradGradGradGradGradGradGradGradGradGrad

                          Input orientation:                          
 ---------------------------------------------------------------------
 Center     Atomic      Atomic             Coordinates (Angstroms)
 Number     Number       Type             X           Y           Z
 ---------------------------------------------------------------------
      1          6           0        0.000000    0.000002    5.230000
      2          1           0        0.000000    1.087210    5.305155
      3          1           0       -0.941556   -0.543595    5.305091
      4          1           0        0.941556   -0.543595    5.305091
      5          6           0        0.000000   -0.000002   -0.770000
      6          1           0        0.941556    0.543595   -0.845091
      7          1           0        0.000000   -1.087210   -0.845155
      8          1           0       -0.941556    0.543595   -0.845091
 ---------------------------------------------------------------------
                    Distance matrix (angstroms):
                    1          2          3          4          5
     1  C    0.000000
     2  H    1.089802   0.000000
     3  H    1.089800   1.883097   0.000000
     4  H    1.089800   1.883097   1.883112   0.000000
     5  C    6.000000   6.171672   6.171609   6.171609   0.000000
     6  H    6.171609   6.245604   6.523254   6.245537   1.089800
     7  H    6.171672   6.523375   6.245604   6.245605   1.089802
     8  H    6.171609   6.245604   6.245537   6.523254   1.089800
                    6          7          8
     6  H    0.000000
     7  H    1.883097   0.000000
     8  H    1.883112   1.883097   0.000000
 Symmetry turned off by external request.
 Stoichiometry    C2H6
 Framework group  C1[X(C2H6)]
 Deg. of freedom    18
 Full point group                 C1      NOp   1
 Rotational constants (GHZ):          70.7056925           1.8260837           1.8260832
 Standard basis: def2SVP (5D, 7F)
    58 basis functions,    92 primitive gaussians,    60 cartesian basis functions
     9 alpha electrons        9 beta electrons
       nuclear repulsion energy        26.1802475756 Hartrees.
 NAtoms=    8 NActive=    8 NUniq=    8 SFac= 1.00D+00 NAtFMM=   60 NAOKFM=F Big=F
 Integral buffers will be    131072 words long.
 Raffenetti 2 integral format.
 Two-electron integral symmetry is turned off.
 Nuclear repulsion after empirical dispersion term =       26.1802068213 Hartrees.
 One-electron integrals computed using PRISM.
   1 Symmetry operations used in ECPInt.
 ECPInt:  NShTT=     465 NPrTT=    1529 LenC2=     452 LenP2D=    1149.
 LDataN:  DoStor=T MaxTD1= 4 Len=   56
 NBasis=    58 RedAO= T EigKep=  2.24D-02  NBF=    58
 NBsUse=    58 1.00D-06 EigRej= -1.00D+00 NBFU=    58
 Initial guess from the checkpoint file:  "C:\Users\zz\Desktop\ethane_relax_scan.chk"
 B after Tr=     0.000000    0.000013    0.000000
         Rot=    1.000000   -0.000002    0.000000    0.000000 Ang=   0.00 deg.
 Initial guess <Sx>= 0.0000 <Sy>= 0.0000 <Sz>= 0.0000 <S**2>= 1.0097 S= 0.6224
 ExpMin= 1.22D-01 ExpMax= 1.24D+03 ExpMxC= 1.86D+02 IAcc=3 IRadAn=         5 AccDes= 0.00D+00
 Harris functional with IExCor= 1009 and IRadAn=      -1 diagonalized for initial guess.
 HarFok:  IExCor= 1009 AccDes= 0.00D+00 IRadAn=        -1 IDoV= 1 UseB2=F ITyADJ=14
 ICtDFT=  3500011 ScaDFX=  1.000000  1.000000  1.000000  1.000000
 FoFCou: FMM=F IPFlag=           0 FMFlag=      100000 FMFlg1=           0
         NFxFlg=           0 DoJE=T BraDBF=F KetDBF=T FulRan=T
         wScrn=  0.000000 ICntrl=       500 IOpCl=  0 I1Cent=   200000004 NGrid=           0
         NMat0=    1 NMatS0=      1 NMatT0=    0 NMatD0=    1 NMtDS0=    0 NMtDT0=    0
 Symmetry not used in FoFCou.
 Keep R1 and R2 ints in memory in canonical form, NReq=4701602.
 Requested convergence on RMS density matrix=1.00D-08 within 128 cycles.
 Requested convergence on MAX density matrix=1.00D-06.
 Requested convergence on             energy=1.00D-06.
 No special actions if energy rises.
 Integral accuracy reduced to 1.0D-05 until final iterations.
 Initial convergence to 1.0D-05 achieved.  Increase integral accuracy.
 SCF Done:  E(UM062X) =  -79.5490542555     A.U. after   13 cycles
            NFock= 13  Conv=0.60D-08     -V/T= 2.0134
 <Sx>= 0.0000 <Sy>= 0.0000 <Sz>= 0.0000 <S**2>= 1.0101 S= 0.6226
 <L.S>= 0.000000000000E+00
 Annihilation of the first spin contaminant:
 S**2 before annihilation     1.0101,   after     0.0814
   1 Symmetry operations used in ECPInt.
 ECPInt:  NShTT=     465 NPrTT=    1529 LenC2=     452 LenP2D=    1149.
 LDataN:  DoStor=T MaxTD1= 5 Len=  102
 Calling FoFJK, ICntrl=      2127 FMM=F ISym2X=0 I1Cent= 0 IOpClX= 1 NMat=1 NMatS=1 NMatT=0.
 -------------------------------------------------------------------
 Center     Atomic                   Forces (Hartrees/Bohr)
 Number     Number              X              Y              Z
 -------------------------------------------------------------------
      1        6           0.000000000   -0.000003882    0.001943171
      2        1           0.000000000   -0.001235520   -0.000649073
      3        1           0.001072492    0.000619699   -0.000647943
      4        1          -0.001072492    0.000619699   -0.000647943
      5        6           0.000000000    0.000003883   -0.001943171
      6        1          -0.001072492   -0.000619699    0.000647943
      7        1           0.000000000    0.001235520    0.000649073
      8        1           0.001072492   -0.000619700    0.000647943
 -------------------------------------------------------------------
 Cartesian Forces:  Max     0.001943171 RMS     0.000895913

 GradGradGradGradGradGradGradGradGradGradGradGradGradGradGradGradGradGrad
 Berny optimization.
 Using GEDIIS/GDIIS optimizer.
 FormGI is forming the generalized inverse of G from B-inverse, IUseBI=4.
 Internal  Forces:  Max     0.001280302 RMS     0.000788671
 Search for a local minimum.
 Step number   4 out of a maximum of   38 on scan point     1 out of    51
 All quantities printed in internal units (Hartrees-Bohrs-Radians)
 Mixed Optimization -- En-DIIS/RFO-DIIS
 Update second derivatives using D2CorX and points    2    3    4
 DE= -1.33D-03 DEPred=-8.26D-04 R= 1.61D+00
 TightC=F SS=  1.41D+00  RLast= 2.00D-01 DXNew= 1.4270D+00 5.9876D-01
 Trust test= 1.61D+00 RLast= 2.00D-01 DXMaxT set to 8.49D-01
 ITU=  1  1  1  0
 Use linear search instead of GDIIS.
     Eigenvalues ---    0.00230   0.03411   0.07985   0.07985   0.07985
     Eigenvalues ---    0.07985   0.16000   0.16000   0.16000   0.16000
     Eigenvalues ---    0.16000   0.37230   0.37230   0.37230   0.37230
     Eigenvalues ---    0.37230   0.477111000.000001000.000001000.00000
     Eigenvalues --- 1000.000001000.000001000.000001000.000001000.00000
     Eigenvalues --- 1000.000001000.000001000.00000
 RFO step:  Lambda=-1.84128432D-05 EMin= 2.30000000D-03
 Quartic linear search produced a step of  0.65142.
 Iteration  1 RMS(Cart)=  0.05263066 RMS(Int)=  0.00535283
 Iteration  2 RMS(Cart)=  0.00172292 RMS(Int)=  0.00513317
 Iteration  3 RMS(Cart)=  0.00003698 RMS(Int)=  0.00513314
 Iteration  4 RMS(Cart)=  0.00000141 RMS(Int)=  0.00513314
 Iteration  5 RMS(Cart)=  0.00000005 RMS(Int)=  0.00513314
 Iteration  1 RMS(Cart)=  0.00000000 RMS(Int)=  0.00000000
 Variable       Old X    -DE/DX   Delta X   Delta X   Delta X     New X
                                 (Linear)    (Quad)   (Total)
    R1        2.05943  -0.00128  -0.00838   0.00194  -0.00644   2.05299
    R2        2.05942  -0.00128  -0.00841   0.00195  -0.00646   2.05296
    R3        2.05942  -0.00128  -0.00841   0.00195  -0.00646   2.05296
    R4       11.33836   0.00000   0.00000   0.00000   0.00000  11.33836
    R5        2.05942  -0.00128  -0.00841   0.00195  -0.00646   2.05296
    R6        2.05943  -0.00128  -0.00838   0.00194  -0.00644   2.05299
    R7        2.05942  -0.00128  -0.00841   0.00195  -0.00646   2.05296
    A1        2.08618   0.00026   0.01784   0.00106   0.00783   2.09400
    A2        2.08618   0.00026   0.01784   0.00106   0.00783   2.09400
    A3        1.63981  -0.00110  -0.04928  -0.00447  -0.05431   1.58550
    A4        2.08621   0.00026   0.01788   0.00105   0.00785   2.09406
    A5        1.63975  -0.00109  -0.04927  -0.00445  -0.05429   1.58547
    A6        1.63975  -0.00109  -0.04927  -0.00445  -0.05429   1.58547
    A7        1.63975  -0.00109  -0.04927  -0.00445  -0.05429   1.58547
    A8        1.63981  -0.00110  -0.04928  -0.00447  -0.05431   1.58550
    A9        1.63975  -0.00109  -0.04927  -0.00445  -0.05429   1.58547
   A10        2.08618   0.00026   0.01784   0.00106   0.00783   2.09400
   A11        2.08621   0.00026   0.01788   0.00105   0.00785   2.09406
   A12        2.08618   0.00026   0.01784   0.00106   0.00783   2.09400
    D1        1.04721   0.00000   0.00001   0.00000   0.00001   1.04722
    D2        3.14159   0.00000   0.00000   0.00000   0.00000  -3.14159
    D3       -1.04721   0.00000  -0.00001   0.00000  -0.00001  -1.04722
    D4        3.14159   0.00000   0.00000   0.00000   0.00000  -3.14159
    D5       -1.04721   0.00000  -0.00001   0.00000  -0.00001  -1.04722
    D6        1.04718   0.00000  -0.00003   0.00001  -0.00002   1.04716
    D7       -1.04718   0.00000   0.00003  -0.00001   0.00002  -1.04716
    D8        1.04721   0.00000   0.00001   0.00000   0.00001   1.04722
    D9       -3.14159   0.00000   0.00000   0.00000   0.00000  -3.14159
         Item               Value     Threshold  Converged?
 Maximum Force            0.001280     0.000450     NO 
 RMS     Force            0.000803     0.000300     NO 
 Maximum Displacement     0.111829     0.001800     NO 
 RMS     Displacement     0.051761     0.001200     NO 
 Predicted change in Energy=-7.054614D-05
 GradGradGradGradGradGradGradGradGradGradGradGradGradGradGradGradGradGrad

                          Input orientation:                          
 ---------------------------------------------------------------------
 Center     Atomic      Atomic             Coordinates (Angstroms)
 Number     Number       Type             X           Y           Z
 ---------------------------------------------------------------------
      1          6           0        0.000000   -0.000008    5.230000
      2          1           0        0.000000    1.086269    5.245978
      3          1           0       -0.940742   -0.543124    5.245935
      4          1           0        0.940742   -0.543124    5.245935
      5          6           0        0.000000    0.000008   -0.770000
      6          1           0        0.940742    0.543124   -0.785935
      7          1           0        0.000000   -1.086269   -0.785978
      8          1           0       -0.940742    0.543124   -0.785935
 ---------------------------------------------------------------------
                    Distance matrix (angstroms):
                    1          2          3          4          5
     1  C    0.000000
     2  H    1.086395   0.000000
     3  H    1.086381   1.881466   0.000000
     4  H    1.086381   1.881466   1.881484   0.000000
     5  C    6.000000   6.113260   6.113221   6.113221   0.000000
     6  H    6.113221   6.128946   6.411192   6.128898   1.086381
     7  H    6.113260   6.411272   6.128946   6.128946   1.086395
     8  H    6.113221   6.128946   6.128898   6.411192   1.086381
                    6          7          8
     6  H    0.000000
     7  H    1.881466   0.000000
     8  H    1.881484   1.881466   0.000000
 Symmetry turned off by external request.
 Stoichiometry    C2H6
 Framework group  C1[X(C2H6)]
 Deg. of freedom    18
 Full point group                 C1      NOp   1
 Rotational constants (GHZ):          70.8282217           1.8406175           1.8406169
 Standard basis: def2SVP (5D, 7F)
    58 basis functions,    92 primitive gaussians,    60 cartesian basis functions
     9 alpha electrons        9 beta electrons
       nuclear repulsion energy        26.2800784469 Hartrees.
 NAtoms=    8 NActive=    8 NUniq=    8 SFac= 1.00D+00 NAtFMM=   60 NAOKFM=F Big=F
 Integral buffers will be    131072 words long.
 Raffenetti 2 integral format.
 Two-electron integral symmetry is turned off.
 Nuclear repulsion after empirical dispersion term =       26.2800353998 Hartrees.
 One-electron integrals computed using PRISM.
   1 Symmetry operations used in ECPInt.
 ECPInt:  NShTT=     465 NPrTT=    1529 LenC2=     452 LenP2D=    1161.
 LDataN:  DoStor=T MaxTD1= 4 Len=   56
 NBasis=    58 RedAO= T EigKep=  2.24D-02  NBF=    58
 NBsUse=    58 1.00D-06 EigRej= -1.00D+00 NBFU=    58
 Initial guess from the checkpoint file:  "C:\Users\zz\Desktop\ethane_relax_scan.chk"
 B after Tr=     0.000000    0.000008    0.000000
         Rot=    1.000000   -0.000001    0.000000    0.000000 Ang=   0.00 deg.
 Initial guess <Sx>= 0.0000 <Sy>= 0.0000 <Sz>= 0.0000 <S**2>= 1.0102 S= 0.6226
 ExpMin= 1.22D-01 ExpMax= 1.24D+03 ExpMxC= 1.86D+02 IAcc=3 IRadAn=         5 AccDes= 0.00D+00
 Harris functional with IExCor= 1009 and IRadAn=      -1 diagonalized for initial guess.
 HarFok:  IExCor= 1009 AccDes= 0.00D+00 IRadAn=        -1 IDoV= 1 UseB2=F ITyADJ=14
 ICtDFT=  3500011 ScaDFX=  1.000000  1.000000  1.000000  1.000000
 FoFCou: FMM=F IPFlag=           0 FMFlag=      100000 FMFlg1=           0
         NFxFlg=           0 DoJE=T BraDBF=F KetDBF=T FulRan=T
         wScrn=  0.000000 ICntrl=       500 IOpCl=  0 I1Cent=   200000004 NGrid=           0
         NMat0=    1 NMatS0=      1 NMatT0=    0 NMatD0=    1 NMtDS0=    0 NMtDT0=    0
 Symmetry not used in FoFCou.
 Keep R1 and R2 ints in memory in canonical form, NReq=4701602.
 Requested convergence on RMS density matrix=1.00D-08 within 128 cycles.
 Requested convergence on MAX density matrix=1.00D-06.
 Requested convergence on             energy=1.00D-06.
 No special actions if energy rises.
 Integral accuracy reduced to 1.0D-05 until final iterations.
 Initial convergence to 1.0D-05 achieved.  Increase integral accuracy.
 SCF Done:  E(UM062X) =  -79.5492766278     A.U. after   13 cycles
            NFock= 13  Conv=0.45D-08     -V/T= 2.0131
 <Sx>= 0.0000 <Sy>= 0.0000 <Sz>= 0.0000 <S**2>= 1.0103 S= 0.6226
 <L.S>= 0.000000000000E+00
 Annihilation of the first spin contaminant:
 S**2 before annihilation     1.0103,   after     0.0824
   1 Symmetry operations used in ECPInt.
 ECPInt:  NShTT=     465 NPrTT=    1529 LenC2=     452 LenP2D=    1161.
 LDataN:  DoStor=T MaxTD1= 5 Len=  102
 Calling FoFJK, ICntrl=      2127 FMM=F ISym2X=0 I1Cent= 0 IOpClX= 1 NMat=1 NMatS=1 NMatT=0.
 -------------------------------------------------------------------
 Center     Atomic                   Forces (Hartrees/Bohr)
 Number     Number              X              Y              Z
 -------------------------------------------------------------------
      1        6           0.000000000    0.000011545    0.000311960
      2        1           0.000000000    0.000857843   -0.000102799
      3        1          -0.000751609   -0.000434692   -0.000109642
      4        1           0.000751609   -0.000434692   -0.000109642
      5        6           0.000000000   -0.000011544   -0.000311960
      6        1           0.000751609    0.000434692    0.000109642
      7        1           0.000000000   -0.000857843    0.000102799
      8        1          -0.000751609    0.000434692    0.000109642
 -------------------------------------------------------------------
 Cartesian Forces:  Max     0.000857843 RMS     0.000444944

 GradGradGradGradGradGradGradGradGradGradGradGradGradGradGradGradGradGrad
 Berny optimization.
 Using GEDIIS/GDIIS optimizer.
 FormGI is forming the generalized inverse of G from B-inverse, IUseBI=4.
 Internal  Forces:  Max     0.000866259 RMS     0.000415494
 Search for a local minimum.
 Step number   5 out of a maximum of   38 on scan point     1 out of    51
 All quantities printed in internal units (Hartrees-Bohrs-Radians)
 Mixed Optimization -- En-DIIS/RFO-DIIS
 Swapping is turned off.
 Update second derivatives using D2CorX and points    3    4    5
 DE= -2.22D-04 DEPred=-7.05D-05 R= 3.15D+00
 TightC=F SS=  1.41D+00  RLast= 1.35D-01 DXNew= 1.4270D+00 4.0591D-01
 Trust test= 3.15D+00 RLast= 1.35D-01 DXMaxT set to 8.49D-01
 ITU=  1  1  1  1  0
     Eigenvalues ---    0.00230   0.01875   0.08109   0.08109   0.08109
     Eigenvalues ---    0.08109   0.16000   0.16000   0.16000   0.16000
     Eigenvalues ---    0.16000   0.37230   0.37230   0.37230   0.37230
     Eigenvalues ---    0.37230   0.539661000.000001000.000001000.00000
     Eigenvalues --- 1000.000001000.000001000.000001000.000001000.00000
     Eigenvalues --- 1000.000001000.000001000.00000
 En-DIIS/RFO-DIIS IScMMF=       -3 using points:     5    4
 RFO step:  Lambda=-8.04808888D-06.
 DidBck=F Rises=F RFO-DIIS coefs:    1.12185   -0.12185
 Iteration  1 RMS(Cart)=  0.01073658 RMS(Int)=  0.00039246
 Iteration  2 RMS(Cart)=  0.00006198 RMS(Int)=  0.00038771
 Iteration  3 RMS(Cart)=  0.00000004 RMS(Int)=  0.00038771
 Iteration  1 RMS(Cart)=  0.00000000 RMS(Int)=  0.00000000
 Variable       Old X    -DE/DX   Delta X   Delta X   Delta X     New X
                                 (Linear)    (Quad)   (Total)
    R1        2.05299   0.00086  -0.00078   0.00185   0.00106   2.05405
    R2        2.05296   0.00087  -0.00079   0.00187   0.00109   2.05405
    R3        2.05296   0.00087  -0.00079   0.00187   0.00109   2.05405
    R4       11.33836  -0.00001   0.00000   0.00000   0.00000  11.33836
    R5        2.05296   0.00087  -0.00079   0.00187   0.00109   2.05405
    R6        2.05299   0.00086  -0.00078   0.00185   0.00106   2.05405
    R7        2.05296   0.00087  -0.00079   0.00187   0.00109   2.05405
    A1        2.09400   0.00001   0.00095   0.00024   0.00035   2.09436
    A2        2.09400   0.00001   0.00095   0.00024   0.00035   2.09436
    A3        1.58550  -0.00024  -0.00662  -0.00457  -0.01120   1.57430
    A4        2.09406   0.00001   0.00096   0.00023   0.00035   2.09441
    A5        1.58547  -0.00025  -0.00662  -0.00467  -0.01130   1.57417
    A6        1.58547  -0.00025  -0.00662  -0.00467  -0.01130   1.57417
    A7        1.58547  -0.00025  -0.00662  -0.00467  -0.01130   1.57417
    A8        1.58550  -0.00024  -0.00662  -0.00457  -0.01120   1.57430
    A9        1.58547  -0.00025  -0.00662  -0.00467  -0.01130   1.57417
   A10        2.09400   0.00001   0.00095   0.00024   0.00035   2.09436
   A11        2.09406   0.00001   0.00096   0.00023   0.00035   2.09441
   A12        2.09400   0.00001   0.00095   0.00024   0.00035   2.09436
    D1        1.04722   0.00000   0.00000   0.00000   0.00000   1.04722
    D2       -3.14159   0.00000   0.00000   0.00000   0.00000  -3.14159
    D3       -1.04722   0.00000   0.00000   0.00000   0.00000  -1.04722
    D4       -3.14159   0.00000   0.00000   0.00000   0.00000  -3.14159
    D5       -1.04722   0.00000   0.00000   0.00000   0.00000  -1.04722
    D6        1.04716   0.00000   0.00000   0.00000   0.00000   1.04716
    D7       -1.04716   0.00000   0.00000   0.00000   0.00000  -1.04716
    D8        1.04722   0.00000   0.00000   0.00000   0.00000   1.04722
    D9       -3.14159   0.00000   0.00000   0.00000   0.00000  -3.14159
         Item               Value     Threshold  Converged?
 Maximum Force            0.000866     0.000450     NO 
 RMS     Force            0.000423     0.000300     NO 
 Maximum Displacement     0.023180     0.001800     NO 
 RMS     Displacement     0.010720     0.001200     NO 
 Predicted change in Energy=-1.058874D-05
 GradGradGradGradGradGradGradGradGradGradGradGradGradGradGradGradGradGrad

                          Input orientation:                          
 ---------------------------------------------------------------------
 Center     Atomic      Atomic             Coordinates (Angstroms)
 Number     Number       Type             X           Y           Z
 ---------------------------------------------------------------------
      1          6           0        0.000000    0.000003    5.230000
      2          1           0        0.000000    1.086953    5.233805
      3          1           0       -0.941336   -0.543455    5.233669
      4          1           0        0.941336   -0.543455    5.233669
      5          6           0        0.000000   -0.000003   -0.770000
      6          1           0        0.941336    0.543455   -0.773669
      7          1           0        0.000000   -1.086953   -0.773805
      8          1           0       -0.941336    0.543455   -0.773669
 ---------------------------------------------------------------------
                    Distance matrix (angstroms):
                    1          2          3          4          5
     1  C    0.000000
     2  H    1.086957   0.000000
     3  H    1.086956   1.882643   0.000000
     4  H    1.086956   1.882643   1.882673   0.000000
     5  C    6.000000   6.101406   6.101270   6.101270   0.000000
     6  H    6.101270   6.105019   6.388578   6.104873   1.086956
     7  H    6.101406   6.388838   6.105018   6.105019   1.086957
     8  H    6.101270   6.105018   6.104873   6.388578   1.086956
                    6          7          8
     6  H    0.000000
     7  H    1.882643   0.000000
     8  H    1.882673   1.882643   0.000000
 Symmetry turned off by external request.
 Stoichiometry    C2H6
 Framework group  C2[X(C2H6)]
 Deg. of freedom    10
 Full point group                 C2      NOp   2
 Rotational constants (GHZ):          70.7394387           1.8435780           1.8435770
 Standard basis: def2SVP (5D, 7F)
    58 basis functions,    92 primitive gaussians,    60 cartesian basis functions
     9 alpha electrons        9 beta electrons
       nuclear repulsion energy        26.2788079487 Hartrees.
 NAtoms=    8 NActive=    8 NUniq=    8 SFac= 1.00D+00 NAtFMM=   60 NAOKFM=F Big=F
 Integral buffers will be    131072 words long.
 Raffenetti 2 integral format.
 Two-electron integral symmetry is turned off.
 Nuclear repulsion after empirical dispersion term =       26.2787644038 Hartrees.
 One-electron integrals computed using PRISM.
   1 Symmetry operations used in ECPInt.
 ECPInt:  NShTT=     465 NPrTT=    1529 LenC2=     452 LenP2D=    1161.
 LDataN:  DoStor=T MaxTD1= 4 Len=   56
 NBasis=    58 RedAO= T EigKep=  2.25D-02  NBF=    58
 NBsUse=    58 1.00D-06 EigRej= -1.00D+00 NBFU=    58
 Initial guess from the checkpoint file:  "C:\Users\zz\Desktop\ethane_relax_scan.chk"
 B after Tr=     0.000000   -0.000009    0.000000
         Rot=    1.000000    0.000001    0.000000    0.000000 Ang=   0.00 deg.
 Initial guess <Sx>= 0.0000 <Sy>= 0.0000 <Sz>= 0.0000 <S**2>= 1.0103 S= 0.6226
 ExpMin= 1.22D-01 ExpMax= 1.24D+03 ExpMxC= 1.86D+02 IAcc=3 IRadAn=         5 AccDes= 0.00D+00
 Harris functional with IExCor= 1009 and IRadAn=      -1 diagonalized for initial guess.
 HarFok:  IExCor= 1009 AccDes= 0.00D+00 IRadAn=        -1 IDoV= 1 UseB2=F ITyADJ=14
 ICtDFT=  3500011 ScaDFX=  1.000000  1.000000  1.000000  1.000000
 FoFCou: FMM=F IPFlag=           0 FMFlag=      100000 FMFlg1=           0
         NFxFlg=           0 DoJE=T BraDBF=F KetDBF=T FulRan=T
         wScrn=  0.000000 ICntrl=       500 IOpCl=  0 I1Cent=   200000004 NGrid=           0
         NMat0=    1 NMatS0=      1 NMatT0=    0 NMatD0=    1 NMtDS0=    0 NMtDT0=    0
 Symmetry not used in FoFCou.
 Keep R1 and R2 ints in memory in canonical form, NReq=4701602.
 Requested convergence on RMS density matrix=1.00D-08 within 128 cycles.
 Requested convergence on MAX density matrix=1.00D-06.
 Requested convergence on             energy=1.00D-06.
 No special actions if energy rises.
 Integral accuracy reduced to 1.0D-05 until final iterations.
 Initial convergence to 1.0D-05 achieved.  Increase integral accuracy.
 SCF Done:  E(UM062X) =  -79.5492926084     A.U. after   11 cycles
            NFock= 11  Conv=0.50D-08     -V/T= 2.0131
 <Sx>= 0.0000 <Sy>= 0.0000 <Sz>= 0.0000 <S**2>= 1.0103 S= 0.6226
 <L.S>= 0.000000000000E+00
 Annihilation of the first spin contaminant:
 S**2 before annihilation     1.0103,   after     0.0826
   1 Symmetry operations used in ECPInt.
 ECPInt:  NShTT=     465 NPrTT=    1529 LenC2=     452 LenP2D=    1161.
 LDataN:  DoStor=T MaxTD1= 5 Len=  102
 Calling FoFJK, ICntrl=      2127 FMM=F ISym2X=0 I1Cent= 0 IOpClX= 1 NMat=1 NMatS=1 NMatT=0.
 -------------------------------------------------------------------
 Center     Atomic                   Forces (Hartrees/Bohr)
 Number     Number              X              Y              Z
 -------------------------------------------------------------------
      1        6           0.000000000    0.000002679    0.000134417
      2        1           0.000000000    0.000442813   -0.000047328
      3        1          -0.000384046   -0.000222748   -0.000049304
      4        1           0.000384046   -0.000222748   -0.000049304
      5        6           0.000000000   -0.000002678   -0.000134417
      6        1           0.000384046    0.000222748    0.000049304
      7        1           0.000000000   -0.000442813    0.000047328
      8        1          -0.000384046    0.000222748    0.000049304
 -------------------------------------------------------------------
 Cartesian Forces:  Max     0.000442813 RMS     0.000226472

 GradGradGradGradGradGradGradGradGradGradGradGradGradGradGradGradGradGrad
 Berny optimization.
 Using GEDIIS/GDIIS optimizer.
 FormGI is forming the generalized inverse of G from B-inverse, IUseBI=4.
 Internal  Forces:  Max     0.000443715 RMS     0.000210742
 Search for a local minimum.
 Step number   6 out of a maximum of   38 on scan point     1 out of    51
 All quantities printed in internal units (Hartrees-Bohrs-Radians)
 Mixed Optimization -- En-DIIS/RFO-DIIS
 Swapping is turned off.
 Update second derivatives using D2CorX and points    3    4    5    6
 DE= -1.60D-05 DEPred=-1.06D-05 R= 1.51D+00
 TightC=F SS=  1.41D+00  RLast= 2.77D-02 DXNew= 1.4270D+00 8.3197D-02
 Trust test= 1.51D+00 RLast= 2.77D-02 DXMaxT set to 8.49D-01
 ITU=  1  1  1  1  1  0
     Eigenvalues ---    0.00230   0.01320   0.08115   0.08115   0.08115
     Eigenvalues ---    0.08115   0.16000   0.16000   0.16000   0.16000
     Eigenvalues ---    0.16000   0.37230   0.37230   0.37230   0.37230
     Eigenvalues ---    0.37230   0.436161000.000001000.000001000.00000
     Eigenvalues --- 1000.000001000.000001000.000001000.000001000.00000
     Eigenvalues --- 1000.000001000.000001000.00000
 En-DIIS/RFO-DIIS IScMMF=       -3 using points:     6    5    4
 RFO step:  Lambda=-2.38896934D-06.
 DidBck=F Rises=F RFO-DIIS coefs:    1.90153   -0.93185    0.03032
 Iteration  1 RMS(Cart)=  0.00810318 RMS(Int)=  0.00005962
 Iteration  2 RMS(Cart)=  0.00003514 RMS(Int)=  0.00004880
 Iteration  3 RMS(Cart)=  0.00000000 RMS(Int)=  0.00004880
 Iteration  1 RMS(Cart)=  0.00000000 RMS(Int)=  0.00000000
 Variable       Old X    -DE/DX   Delta X   Delta X   Delta X     New X
                                 (Linear)    (Quad)   (Total)
    R1        2.05405   0.00044   0.00115   0.00001   0.00117   2.05522
    R2        2.05405   0.00044   0.00118  -0.00001   0.00117   2.05522
    R3        2.05405   0.00044   0.00118  -0.00001   0.00117   2.05522
    R4       11.33836  -0.00001   0.00000   0.00000   0.00000  11.33836
    R5        2.05405   0.00044   0.00118  -0.00001   0.00117   2.05522
    R6        2.05405   0.00044   0.00115   0.00001   0.00117   2.05522
    R7        2.05405   0.00044   0.00118  -0.00001   0.00117   2.05522
    A1        2.09436   0.00000   0.00008   0.00001  -0.00002   2.09434
    A2        2.09436   0.00000   0.00008   0.00001  -0.00002   2.09434
    A3        1.57430  -0.00010  -0.00845  -0.00002  -0.00847   1.56582
    A4        2.09441   0.00000   0.00008  -0.00001  -0.00004   2.09438
    A5        1.57417  -0.00010  -0.00854   0.00001  -0.00852   1.56565
    A6        1.57417  -0.00010  -0.00854   0.00001  -0.00852   1.56565
    A7        1.57417  -0.00010  -0.00854   0.00001  -0.00852   1.56565
    A8        1.57430  -0.00010  -0.00845  -0.00002  -0.00847   1.56582
    A9        1.57417  -0.00010  -0.00854   0.00001  -0.00852   1.56565
   A10        2.09436   0.00000   0.00008   0.00001  -0.00002   2.09434
   A11        2.09441   0.00000   0.00008  -0.00001  -0.00004   2.09438
   A12        2.09436   0.00000   0.00008   0.00001  -0.00002   2.09434
    D1        1.04722   0.00000   0.00000  -0.00001  -0.00001   1.04721
    D2       -3.14159   0.00000   0.00000   0.00000   0.00000  -3.14159
    D3       -1.04722   0.00000   0.00000   0.00001   0.00001  -1.04721
    D4       -3.14159   0.00000   0.00000   0.00000   0.00000  -3.14159
    D5       -1.04722   0.00000   0.00000   0.00001   0.00001  -1.04721
    D6        1.04716   0.00000   0.00000   0.00001   0.00001   1.04717
    D7       -1.04716   0.00000   0.00000  -0.00001  -0.00001  -1.04717
    D8        1.04722   0.00000   0.00000  -0.00001  -0.00001   1.04721
    D9       -3.14159   0.00000   0.00000   0.00000   0.00000  -3.14159
         Item               Value     Threshold  Converged?
 Maximum Force            0.000444     0.000450     YES
 RMS     Force            0.000215     0.000300     YES
 Maximum Displacement     0.017512     0.001800     NO 
 RMS     Displacement     0.008110     0.001200     NO 
 Predicted change in Energy=-3.993110D-06
 GradGradGradGradGradGradGradGradGradGradGradGradGradGradGradGradGradGrad

                          Input orientation:                          
 ---------------------------------------------------------------------
 Center     Atomic      Atomic             Coordinates (Angstroms)
 Number     Number       Type             X           Y           Z
 ---------------------------------------------------------------------
      1          6           0        0.000000    0.000010    5.230000
      2          1           0        0.000000    1.087570    5.224588
      3          1           0       -0.941862   -0.543758    5.224402
      4          1           0        0.941862   -0.543758    5.224402
      5          6           0        0.000000   -0.000010   -0.770000
      6          1           0        0.941862    0.543758   -0.764402
      7          1           0        0.000000   -1.087570   -0.764588
      8          1           0       -0.941862    0.543758   -0.764402
 ---------------------------------------------------------------------
                    Distance matrix (angstroms):
                    1          2          3          4          5
     1  C    0.000000
     2  H    1.087573   0.000000
     3  H    1.087575   1.883703   0.000000
     4  H    1.087575   1.883703   1.883725   0.000000
     5  C    6.000000   6.092448   6.092259   6.092259   0.000000
     6  H    6.092259   6.086940   6.371568   6.086745   1.087575
     7  H    6.092448   6.371928   6.086940   6.086940   1.087573
     8  H    6.092259   6.086940   6.086745   6.371568   1.087575
                    6          7          8
     6  H    0.000000
     7  H    1.883703   0.000000
     8  H    1.883725   1.883703   0.000000
 Symmetry turned off by external request.
 Stoichiometry    C2H6
 Framework group  C1[X(C2H6)]
 Deg. of freedom    18
 Full point group                 C1      NOp   1
 Rotational constants (GHZ):          70.6600524           1.8458100           1.8458093
 Standard basis: def2SVP (5D, 7F)
    58 basis functions,    92 primitive gaussians,    60 cartesian basis functions
     9 alpha electrons        9 beta electrons
       nuclear repulsion energy        26.2747168801 Hartrees.
 NAtoms=    8 NActive=    8 NUniq=    8 SFac= 1.00D+00 NAtFMM=   60 NAOKFM=F Big=F
 Integral buffers will be    131072 words long.
 Raffenetti 2 integral format.
 Two-electron integral symmetry is turned off.
 Nuclear repulsion after empirical dispersion term =       26.2746729529 Hartrees.
 One-electron integrals computed using PRISM.
[...]
           A9         106.09446 107.16389 108.26573 109.39256 110.53766
           A10        112.62584 111.67547 110.64772 109.54790 108.38255
           A11        112.62621 111.67656 110.64929 109.54977 108.38457
           A12        112.62584 111.67547 110.64772 109.54790 108.38255
           D1          59.99983  59.99992  59.99997  60.00001  60.00033
           D2         179.99999 180.00000-180.00000-180.00000 180.00000
           D3         -59.99985 -59.99993 -59.99997 -60.00000 -60.00033
           D4         179.99999 180.00000-180.00000-180.00000-180.00000
           D5         -59.99985 -59.99993 -59.99997 -60.00000 -60.00033
           D6          60.00031  60.00015  60.00007  59.99999  59.99935
           D7         -60.00033 -60.00015 -60.00006 -59.99999 -59.99935
           D8          59.99983  59.99992  59.99997  60.00001  60.00033
           D9         179.99999 180.00000 180.00000-180.00000 180.00000
                          46        47        48        49        50
     Eigenvalues --    -0.71011  -0.70060  -0.67149  -0.61053  -0.49846
           R1           1.09977   1.10184   1.10445   1.10789   1.11256
           R2           1.09976   1.10183   1.10445   1.10789   1.11255
           R3           1.09976   1.10183   1.10445   1.10789   1.11255
           R4           1.50000   1.40000   1.30000   1.20000   1.10000
           R5           1.09976   1.10183   1.10445   1.10789   1.11255
           R6           1.09977   1.10184   1.10445   1.10789   1.11256
           R7           1.09976   1.10183   1.10445   1.10789   1.11255
           A1         107.15454 105.85572 104.45858 102.91182 101.14264
           A2         107.15454 105.85572 104.45858 102.91182 101.14264
           A3         111.69827 112.88013 114.11007 115.42928 116.88885
           A4         107.15561 105.85439 104.45552 102.91012 101.14434
           A5         111.69878 112.88319 114.11314 115.42826 116.88373
           A6         111.69878 112.88319 114.11314 115.42826 116.88373
           A7         111.69878 112.88319 114.11314 115.42826 116.88373
           A8         111.69827 112.88013 114.11007 115.42928 116.88885
           A9         111.69878 112.88319 114.11314 115.42826 116.88373
           A10        107.15454 105.85572 104.45858 102.91182 101.14264
           A11        107.15561 105.85439 104.45552 102.91012 101.14434
           A12        107.15454 105.85572 104.45858 102.91182 101.14264
           D1          60.00058  60.00016  59.99942  59.99894  59.99931
           D2         180.00000 180.00000 180.00000 180.00000 180.00000
           D3         -60.00058 -60.00016 -59.99942 -59.99894 -59.99931
           D4         180.00000 180.00000 180.00000 180.00000 180.00000
           D5         -60.00058 -60.00016 -59.99942 -59.99894 -59.99931
           D6          59.99885  59.99967  60.00115  60.00213  60.00138
           D7         -59.99885 -59.99967 -60.00115 -60.00212 -60.00138
           D8          60.00058  60.00016  59.99942  59.99894  59.99931
           D9         180.00000 180.00000 180.00000 180.00000 180.00000
                          51
     Eigenvalues --    -0.30453
           R1           1.11903
           R2           1.11903
           R3           1.11903
           R4           1.00000
           R5           1.11903
           R6           1.11903
           R7           1.11903
           A1          99.06504
           A2          99.06504
           A3         118.54465
           A4          99.06792
           A5         118.53963
           A6         118.53963
           A7         118.53962
           A8         118.54465
           A9         118.53962
           A10         99.06504
           A11         99.06792
           A12         99.06504
           D1          59.99984
           D2         180.00000
           D3         -59.99984
           D4         180.00000
           D5         -59.99984
           D6          60.00032
           D7         -60.00032
           D8          59.99984
           D9         180.00000
 GradGradGradGradGradGradGradGradGradGradGradGradGradGradGradGradGradGrad

                          Input orientation:                          
 ---------------------------------------------------------------------
 Center     Atomic      Atomic             Coordinates (Angstroms)
 Number     Number       Type             X           Y           Z
 ---------------------------------------------------------------------
      1          6           0        0.000000    0.000011    2.730000
      2          1           0        0.000000    0.983029    3.264700
      3          1           0       -0.851346   -0.491506    3.264644
      4          1           0        0.851346   -0.491506    3.264644
      5          6           0        0.000000   -0.000011    1.730000
      6          1           0        0.851346    0.491506    1.195356
      7          1           0        0.000000   -0.983029    1.195300
      8          1           0       -0.851346    0.491506    1.195356
 ---------------------------------------------------------------------
                    Distance matrix (angstroms):
                    1          2          3          4          5
     1  C    0.000000
     2  H    1.119030   0.000000
     3  H    1.119027   1.702657   0.000000
     4  H    1.119027   1.702657   1.702691   0.000000
     5  C    1.000000   1.822545   1.822496   1.822496   0.000000
     6  H    1.822496   2.290976   2.854369   2.290910   1.119027
     7  H    1.822545   2.854435   2.290976   2.290976   1.119030
     8  H    1.822496   2.290976   2.290910   2.854369   1.119027
                    6          7          8
     6  H    0.000000
     7  H    1.702657   0.000000
     8  H    1.702691   1.702657   0.000000
 Symmetry turned off by external request.
 Stoichiometry    C2H6
 Framework group  C1[X(C2H6)]
 Deg. of freedom    18
 Full point group                 C1      NOp   1
 Rotational constants (GHZ):          86.4852204          32.8272392          32.8269019

 **********************************************************************

            Population analysis using the SCF Density.

 **********************************************************************

 Alpha  occ. eigenvalues --  -10.52581 -10.51307  -0.97240  -0.66052  -0.57708
 Alpha  occ. eigenvalues --   -0.57707  -0.53845  -0.32246  -0.32245
 Alpha virt. eigenvalues --    0.10729   0.11561   0.11561   0.15392   0.22691
 Alpha virt. eigenvalues --    0.22692   0.35858   0.42710   0.49738   0.49740
 Alpha virt. eigenvalues --    0.56141   0.56144   0.65128   0.65129   0.69410
 Alpha virt. eigenvalues --    0.71700   0.81958   0.81958   0.92635   0.95275
 Alpha virt. eigenvalues --    1.20587   1.20590   1.31384   1.46902   1.46905
 Alpha virt. eigenvalues --    1.62884   1.64823   1.80651   1.80653   1.89555
 Alpha virt. eigenvalues --    1.89558   1.95067   1.96377   1.96379   2.03449
 Alpha virt. eigenvalues --    2.03454   2.08659   2.48864   2.50173   2.50568
 Alpha virt. eigenvalues --    2.50573   2.52931   2.52933   2.55477   3.26308
 Alpha virt. eigenvalues --    3.26310   3.46636   3.46639   3.64986
  Beta  occ. eigenvalues --  -10.52581 -10.51307  -0.97240  -0.66052  -0.57708
  Beta  occ. eigenvalues --   -0.57707  -0.53845  -0.32246  -0.32245
  Beta virt. eigenvalues --    0.10729   0.11561   0.11561   0.15392   0.22691
  Beta virt. eigenvalues --    0.22692   0.35858   0.42710   0.49738   0.49740
  Beta virt. eigenvalues --    0.56141   0.56144   0.65128   0.65129   0.69410
  Beta virt. eigenvalues --    0.71700   0.81958   0.81958   0.92635   0.95275
  Beta virt. eigenvalues --    1.20587   1.20590   1.31384   1.46902   1.46905
  Beta virt. eigenvalues --    1.62884   1.64823   1.80651   1.80653   1.89555
  Beta virt. eigenvalues --    1.89558   1.95067   1.96377   1.96379   2.03449
  Beta virt. eigenvalues --    2.03454   2.08659   2.48864   2.50173   2.50568
  Beta virt. eigenvalues --    2.50573   2.52931   2.52933   2.55477   3.26308
  Beta virt. eigenvalues --    3.26310   3.46636   3.46639   3.64986
          Condensed to atoms (all electrons):
               1          2          3          4          5          6
     1  C    4.474822   0.388758   0.388747   0.388747   0.512555  -0.033659
     2  H    0.388758   0.758553  -0.049230  -0.049230  -0.033656  -0.029859
     3  H    0.388747  -0.049230   0.758563  -0.049222  -0.033659   0.026969
     4  H    0.388747  -0.049230  -0.049222   0.758563  -0.033659  -0.029859
     5  C    0.512555  -0.033656  -0.033659  -0.033659   4.474822   0.388747
     6  H   -0.033659  -0.029859   0.026969  -0.029859   0.388747   0.758563
     7  H   -0.033656   0.026966  -0.029859  -0.029859   0.388758  -0.049230
     8  H   -0.033659  -0.029859  -0.029859   0.026969   0.388747  -0.049222
               7          8
     1  C   -0.033656  -0.033659
     2  H    0.026966  -0.029859
     3  H   -0.029859  -0.029859
     4  H   -0.029859   0.026969
     5  C    0.388758   0.388747
     6  H   -0.049230  -0.049222
     7  H    0.758553  -0.049230
     8  H   -0.049230   0.758563
          Atomic-Atomic Spin Densities.
               1          2          3          4          5          6
     1  C    0.000000   0.000000   0.000000   0.000000   0.000000   0.000000
     2  H    0.000000   0.000000   0.000000   0.000000   0.000000   0.000000
     3  H    0.000000   0.000000   0.000000   0.000000   0.000000   0.000000
     4  H    0.000000   0.000000   0.000000   0.000000   0.000000   0.000000
     5  C    0.000000   0.000000   0.000000   0.000000   0.000000   0.000000
     6  H    0.000000   0.000000   0.000000   0.000000   0.000000   0.000000
     7  H    0.000000   0.000000   0.000000   0.000000   0.000000   0.000000
     8  H    0.000000   0.000000   0.000000   0.000000   0.000000   0.000000
               7          8
     1  C    0.000000   0.000000
     2  H    0.000000   0.000000
     3  H    0.000000   0.000000
     4  H    0.000000   0.000000
     5  C    0.000000   0.000000
     6  H    0.000000   0.000000
     7  H    0.000000   0.000000
     8  H    0.000000   0.000000
 Mulliken charges and spin densities:
               1          2
     1  C   -0.052655   0.000000
     2  H    0.017556   0.000000
     3  H    0.017550   0.000000
     4  H    0.017550   0.000000
     5  C   -0.052655   0.000000
     6  H    0.017550   0.000000
     7  H    0.017556   0.000000
     8  H    0.017550   0.000000
 Sum of Mulliken charges =   0.00000   0.00000
 Mulliken charges and spin densities with hydrogens summed into heavy atoms:
               1          2
     1  C    0.000000   0.000000
     5  C    0.000000   0.000000
 Electronic spatial extent (au):  <R**2>=            407.4426
 Charge=              0.0000 electrons
 Dipole moment (field-independent basis, Debye):
    X=              0.0000    Y=              0.0000    Z=              0.0000  Tot=              0.0000
 Quadrupole moment (field-independent basis, Debye-Ang):
   XX=            -14.7892   YY=            -14.7894   ZZ=            -15.3891
   XY=              0.0000   XZ=              0.0000   YZ=              0.0002
 Traceless Quadrupole moment (field-independent basis, Debye-Ang):
   XX=              0.2000   YY=              0.1998   ZZ=             -0.3999
   XY=              0.0000   XZ=              0.0000   YZ=              0.0002
 Octapole moment (field-independent basis, Debye-Ang**2):
  XXX=              0.0000  YYY=              0.0000  ZZZ=           -102.9529  XYY=              0.0000
  XXY=              0.0000  XXZ=            -32.9799  XZZ=              0.0000  YZZ=              0.0008
  YYZ=            -32.9803  XYZ=              0.0000
 Hexadecapole moment (field-independent basis, Debye-Ang**3):
 XXXX=            -29.3346 YYYY=            -29.3343 ZZZZ=           -523.8938 XXXY=              0.0000
 XXXZ=              0.0000 YYYX=              0.0000 YYYZ=              0.3639 ZZZX=              0.0000
 ZZZY=              0.0027 XXYY=             -9.7782 XXZZ=            -89.3570 YYZZ=            -89.3577
 XXYZ=             -0.3643 YYXZ=              0.0000 ZZXY=              0.0000
 N-N= 5.033406877590D+01 E-N=-2.847055281911D+02  KE= 8.070142907596D+01
                          Isotropic Fermi Contact Couplings
        Atom                 a.u.       MegaHertz       Gauss      10(-4) cm-1
     1  C(13)              0.00000       0.00000       0.00000       0.00000
     2  H(1)               0.00000       0.00000       0.00000       0.00000
     3  H(1)               0.00000       0.00000       0.00000       0.00000
     4  H(1)               0.00000       0.00000       0.00000       0.00000
     5  C(13)              0.00000       0.00000       0.00000       0.00000
     6  H(1)               0.00000       0.00000       0.00000       0.00000
     7  H(1)               0.00000       0.00000       0.00000       0.00000
     8  H(1)               0.00000       0.00000       0.00000       0.00000
 --------------------------------------------------------
       Center         ----  Spin Dipole Couplings  ----
                      3XX-RR        3YY-RR        3ZZ-RR
 --------------------------------------------------------
     1   Atom        0.000000      0.000000      0.000000
     2   Atom        0.000000      0.000000      0.000000
     3   Atom        0.000000      0.000000      0.000000
     4   Atom        0.000000      0.000000      0.000000
     5   Atom        0.000000      0.000000      0.000000
     6   Atom        0.000000      0.000000      0.000000
     7   Atom        0.000000      0.000000      0.000000
     8   Atom        0.000000      0.000000      0.000000
 --------------------------------------------------------
                        XY            XZ            YZ
 --------------------------------------------------------
     1   Atom        0.000000      0.000000      0.000000
     2   Atom        0.000000      0.000000      0.000000
     3   Atom        0.000000      0.000000      0.000000
     4   Atom        0.000000      0.000000      0.000000
     5   Atom        0.000000      0.000000      0.000000
     6   Atom        0.000000      0.000000      0.000000
     7   Atom        0.000000      0.000000      0.000000
     8   Atom        0.000000      0.000000      0.000000
 --------------------------------------------------------


 ---------------------------------------------------------------------------------
              Anisotropic Spin Dipole Couplings in Principal Axis System
 ---------------------------------------------------------------------------------

       Atom             a.u.   MegaHertz   Gauss  10(-4) cm-1        Axes

              Baa     0.0000     0.000     0.000     0.000  1.0000  0.0000  0.0000
     1 C(13)  Bbb     0.0000     0.000     0.000     0.000  0.0000  1.0000  0.0000
              Bcc     0.0000     0.000     0.000     0.000  0.0000  0.0000  1.0000
 
              Baa     0.0000     0.000     0.000     0.000  1.0000  0.0000  0.0000
     2 H(1)   Bbb     0.0000     0.000     0.000     0.000  0.0000  1.0000  0.0000
              Bcc     0.0000     0.000     0.000     0.000  0.0000  0.0000  1.0000
 
              Baa     0.0000     0.000     0.000     0.000  1.0000  0.0000  0.0000
     3 H(1)   Bbb     0.0000     0.000     0.000     0.000  0.0000  1.0000  0.0000
              Bcc     0.0000     0.000     0.000     0.000  0.0000  0.0000  1.0000
 
              Baa     0.0000     0.000     0.000     0.000  1.0000  0.0000  0.0000
     4 H(1)   Bbb     0.0000     0.000     0.000     0.000  0.0000  1.0000  0.0000
              Bcc     0.0000     0.000     0.000     0.000  0.0000  0.0000  1.0000
 
              Baa     0.0000     0.000     0.000     0.000  1.0000  0.0000  0.0000
     5 C(13)  Bbb     0.0000     0.000     0.000     0.000  0.0000  1.0000  0.0000
              Bcc     0.0000     0.000     0.000     0.000  0.0000  0.0000  1.0000
 
              Baa     0.0000     0.000     0.000     0.000  1.0000  0.0000  0.0000
     6 H(1)   Bbb     0.0000     0.000     0.000     0.000  0.0000  1.0000  0.0000
              Bcc     0.0000     0.000     0.000     0.000  0.0000  0.0000  1.0000
 
              Baa     0.0000     0.000     0.000     0.000  1.0000  0.0000  0.0000
     7 H(1)   Bbb     0.0000     0.000     0.000     0.000  0.0000  1.0000  0.0000
              Bcc     0.0000     0.000     0.000     0.000  0.0000  0.0000  1.0000
 
              Baa     0.0000     0.000     0.000     0.000  1.0000  0.0000  0.0000
     8 H(1)   Bbb     0.0000     0.000     0.000     0.000  0.0000  1.0000  0.0000
              Bcc     0.0000     0.000     0.000     0.000  0.0000  0.0000  1.0000
 

 ---------------------------------------------------------------------------------

 1|1|UNPC-DESKTOP-T8NFEU5|Scan|UM062X|def2SVP|C2H6|ZZ|18-Mar-2020|0||# 
 Opt=ModRedundant UM062X/def2SVP EmpiricalDispersion=GD3 Integral=Ultra
 FineGrid NoSymmetry Guess=Read||For Symmetry broken wavefunction||0,1|
 C,0.0000000001,0.0000107947,2.7300000283|H,-0.000000011,0.9830286234,3
 .2647000047|H,-0.8513457271,-0.4915055318,3.2646443918|H,0.8513457379,
 -0.4915055157,3.2646443896|C,0.0000000001,-0.0000108022,1.7300000285|H
 ,0.8513457332,0.4915055184,1.1953556782|H,-0.000000011,-0.9830286214,1
 .1953000429|H,-0.8513457224,0.4915055346,1.1953556759||Version=EM64W-G
 16RevB.01|HF=-79.5492968,-79.5492994,-79.5493032,-79.5493086,-79.54931
 64,-79.5493273,-79.5493439,-79.5493686,-79.5494041,-79.5494524,-79.549
 5199,-79.5496139,-79.5497377,-79.5498935,-79.5500873,-79.5503251,-79.5
 506035,-79.5509153,-79.5512749,-79.5516735,-79.5520935,-79.5525546,-79
 .5530525,-79.5535849,-79.5541617,-79.5547999,-79.5555256,-79.5563634,-
 79.5573597,-79.5585677,-79.5600689,-79.5619691,-79.564451,-79.5678533,
 -79.573078,-79.5841298,-79.5969458,-79.6106027,-79.6250306,-79.6400913
 ,-79.6555431,-79.6709799,-79.6857228,-79.6986301,-79.7077957,-79.71010
 68,-79.7006028,-79.6714862,-79.6105255,-79.4984556,-79.3045321|S2=1.01
 0306,1.010302,1.010294,1.010282,1.010263,1.010233,1.010187,1.010117,1.
 010015,1.009867,1.009652,1.009356,1.008955,1.008417,1.007727,1.006823,
 1.005703,1.004313,1.002534,1.000382,0.997665,0.994261,0.990125,0.98476
 8,0.977934,0.969081,0.957508,0.942138,0.921628,0.89442,0.858195,0.8096
 19,0.742423,0.642045,0.419876,0.,0.,0.,0.,0.,0.,0.,0.,0.,0.,0.,0.,0.,0
 .,0.,0.|S2-1=0.,0.,0.,0.,0.,0.,0.,0.,0.,0.,0.,0.,0.,0.,0.,0.,0.,0.,0.,
 0.,0.,0.,0.,0.,0.,0.,0.,0.,0.,0.,0.,0.,0.,0.,0.,0.,0.,0.,0.,0.,0.,0.,0
 .,0.,0.,0.,0.,0.,0.,0.,0.|S2A=0.082771,0.082779,0.082781,0.082784,0.08
 2785,0.082785,0.08278,0.082767,0.082747,0.082715,0.082652,0.082563,0.0
 82447,0.082294,0.08206,0.081777,0.081411,0.080935,0.080357,0.079641,0.
 078792,0.07777,0.076618,0.0752,0.073417,0.071274,0.068611,0.065165,0.0
 60752,0.055389,0.048838,0.041125,0.032194,0.021883,0.007867,0.,0.,0.,0
 .,0.,0.,0.,0.,0.,0.,0.,0.,0.,0.,0.,0.|RMSD=3.652e-009,6.907e-010,9.536
 e-009,1.911e-009,2.253e-009,8.525e-009,8.477e-009,3.840e-009,4.402e-00
 9,4.340e-009,7.499e-009,5.599e-009,7.065e-009,4.428e-009,3.216e-009,6.
 567e-009,2.241e-009,7.617e-009,9.670e-009,2.990e-009,4.502e-009,3.339e
 -009,7.749e-009,4.851e-009,4.039e-009,3.160e-009,4.286e-009,3.402e-009
 ,1.693e-009,6.815e-009,2.435e-009,7.183e-009,3.395e-009,5.538e-009,2.1
 01e-009,3.759e-009,4.015e-009,7.437e-009,8.914e-009,3.758e-009,2.631e-
 009,2.705e-009,2.131e-009,7.486e-009,3.846e-009,3.489e-009,3.817e-009,
 7.003e-009,7.564e-010,1.336e-009,2.088e-009|PG=C01 [X(C2H6)]||@


 NOT WHAT WE DID SHALL BE THE TEST
 WHEN ACT AND WILL ARE DONE,
 BUT WHAT OUR LORD INFERS WE WOULD-
 HAD WE DIVINER BEEN.
           EMILY DICKINSON  POEMS NO. CLXXV
 Job cpu time:       0 days  1 hours  5 minutes  1.0 seconds.
 Elapsed time:       0 days  1 hours  2 minutes  5.7 seconds.
 File lengths (MBytes):  RWF=     10 Int=      0 D2E=      0 Chk=      4 Scr=      1
 Normal termination of Gaussian 16 at Wed Mar 18 16:57:00 2020.
